LAMMPS data file via write_data, version 2 Aug 2023, timestep = 1000000, units = lj

6752 atoms
1 atom types

0 22 xlo xhi
0 22 ylo yhi
0 22 zlo zhi

Masses

1 1

Pair Coeffs # lj/cut

1 1 1

Atoms # full

4870 1 1 0 1.1483246977083406 1.8075844953567464 1.2958960193280793 0 1 -3
125 1 1 0 1.084561868342495 1.055636370661284 0.5432765514523256 2 -1 -1
3210 1 1 0 2.5070632700512236 1.1625801294405196 0.8684538447463032 0 0 1
2177 1 1 0 1.8746367291721182 0.1134428939606621 0.9002845999967505 1 0 2
4606 1 1 0 2.950273851735283 0.09756237346513674 0.8639740496558498 0 -1 2
555 1 1 0 4.202767806418815 0.11582804249479435 0.6048877463196599 -2 1 -1
4147 1 1 0 4.536927445818651 0.2892057451757281 1.7001412185554678 -3 -1 1
4458 1 1 0 4.474741529103394 1.5321390648030984 0.36335812366555503 0 1 0
1045 1 1 0 3.724916252072163 0.8729317695695508 1.1385872944337456 -3 0 0
3699 1 1 0 5.603295769543317 1.5714096489539477 0.884668467129328 1 0 0
1976 1 1 0 6.250524480893939 0.7085202379851687 1.299632065058785 -2 -1 2
1738 1 1 0 6.606482233876333 0.8213380301193673 0.3381043097826155 -1 0 -1
974 1 1 0 7.106849574105065 1.4696531245020479 1.486735779995034 1 -2 0
6244 1 1 0 7.26235871203763 0.35802752745130695 1.3451726224979643 0 2 0
3420 1 1 0 7.55782978983975 0.8699968770919038 0.00015367755962714114 0 1 1
5321 1 1 0 9.039777376134586 1.7072253379092381 1.4908464398800432 -2 2 -1
4660 1 1 0 8.804472633239731 0.13994395227628276 1.3587095402546636 -1 2 1
6632 1 1 0 8.018031930569075 0.9949625960269082 0.9168478452813621 0 2 0
4856 1 1 0 9.218077525440943 1.3307012981941577 0.3279116599874704 -1 -1 -2
5611 1 1 0 10.905896975852668 1.604282018560488 1.1828399258696796 0 0 -2
5331 1 1 0 10.362116625774794 0.8722488275894811 0.45768139801551233 1 0 -1
103 1 1 0 1.186675706934272 3.4120192224992927 0.13840728784015063 1 0 1
5959 1 1 0 0.46400900154573294 2.9144677101193635 1.1810777934127086 0 -1 1
3391 1 1 0 0.30182639212334744 2.2830057557269074 0.2489185899330964 -1 1 -1
4631 1 1 0 1.360424938316946 3.3235055638315147 1.1927747751946107 2 0 1
1761 1 1 0 2.9860427324795444 2.712059330839784 1.048145527591878 -1 3 -1
6555 1 1 0 2.1167305974725217 2.317806383587997 0.5904365691002601 0 1 -1
6339 1 1 0 4.07479761833108 2.6110024019706883 0.7450023710894417 4 2 3
5057 1 1 0 3.50683840019781 3.5375641581430144 1.3335110759584277 -1 2 2
4986 1 1 0 4.508344163036737 3.4257604750684747 0.08403563964048705 -2 1 0
1680 1 1 0 5.0262884027021135 2.1749825907627387 1.700420232314968 1 0 0
1325 1 1 0 5.382938005477756 2.685298080952125 0.4416923978384562 -1 0 0
6116 1 1 0 5.2890609614243 3.3742045789401303 1.64128015559733 2 0 0
480 1 1 0 6.20220387428852 3.4098709989473086 0.24869875733704758 -2 -1 2
2029 1 1 0 7.32537597762637 3.5574128946153922 0.014994713812227282 1 -1 -1
1642 1 1 0 7.438890598466159 2.5132381335288803 1.6276722594616237 -1 1 -1
6075 1 1 0 6.40879622535073 2.3049811915895426 0.44988394990527164 0 1 1
5896 1 1 0 6.774873674764147 3.363625823900251 1.1252784774127718 2 -2 -1
4304 1 1 0 7.76469175150533 1.865397235421707 0.12930147559457864 1 -1 0
3537 1 1 0 7.912282954188058 2.918087629284941 0.7184615738807318 2 0 2
6206 1 1 0 8.574774752756879 3.6096608111883155 0.09733098802009331 3 3 -1
4534 1 1 0 8.25443841521283 3.4377504405525348 1.5433469169703633 -1 0 -2
1071 1 1 0 9.006865552772581 2.5849531288203518 0.7784411333195329 -1 1 0
4949 1 1 0 10.392047952726346 3.1457518135970735 1.4356664497113494 -3 -1 3
291 1 1 0 10.474701165608417 2.441006946417411 0.7656550956477274 -2 2 1
5646 1 1 0 1.5014970326980581 4.329438741321902 0.963253836195618 3 1 1
1359 1 1 0 0.5233583261627693 4.718302058955094 0.47743130002484785 0 -2 4
1751 1 1 0 0.7178715106605372 4.434471845964277 1.67410628271594 -3 1 0
3757 1 1 0 2.6129872617582084 4.823504176125299 0.42014588249894436 -2 1 0
86 1 1 0 2.1460070193604994 4.811534511328982 1.6669438830069823 -1 0 2
2106 1 1 0 2.4790725778537928 3.7634249613536546 0.7607487091255765 0 2 1
6189 1 1 0 3.7086373129529777 4.56739868109104 1.289935567717822 0 -2 2
6086 1 1 0 4.693617135236684 4.931710704059244 0.5121273993073432 0 3 -1
3280 1 1 0 3.259573737526088 5.436274995495791 1.3993897159014028 0 -2 1
3605 1 1 0 5.399262374614187 5.136489153222228 1.4052246580541379 -2 0 2
4752 1 1 0 5.923531777341105 4.047295144929274 1.1899150211645844 0 1 -1
1161 1 1 0 5.692928393979779 4.490628872674962 0.07280505523260744 -1 1 0
6564 1 1 0 6.556745515732171 4.763184297206914 0.6857184555376763 2 -1 -1
3735 1 1 0 7.445788325152316 4.242610687040933 1.5519049252488566 1 -1 0
5608 1 1 0 8.085161982085324 5.296376303785732 1.3241983255259129 0 4 1
4378 1 1 0 9.422357199027742 3.846571635071266 1.1230361429111109 -2 -1 0
4294 1 1 0 7.9064523836045035 4.372370407446306 0.5956045788216934 -2 1 1
4137 1 1 0 8.465314426879788 4.381705355295018 1.430372903117855 2 0 1
5522 1 1 0 9.22771918729276 4.693031053113896 0.4631634278343197 -2 3 2
5456 1 1 0 10.080514130542456 5.198139957311649 1.8117888307088275 2 3 -1
1018 1 1 0 10.718061753525522 4.281521653225573 1.1950326518425785 -3 2 1
3197 1 1 0 10.24202259535339 4.602602604591746 0.1826188336404929 0 -1 -2
6464 1 1 0 1.059727258700556 0.9900127882264956 1.8631345784021192 2 1 0
2375 1 1 0 2.3055526884382744 0.9265812699111722 1.9912797389761991 0 1 0
6042 1 1 0 1.8855932693547859 0.2205029857039084 2.7646212691192953 0 0 -1
6480 1 1 0 1.7305792128624378 0.7723216031815786 3.6249780019889717 0 0 1
407 1 1 0 3.372244540549951 0.19340109750847373 1.8942683763228103 0 -1 2
4597 1 1 0 3.252820281852858 1.4812179542922819 2.0057319212221616 -1 1 -1
3116 1 1 0 4.469698685679863 1.0835220877565976 2.528254101145614 0 0 1
6314 1 1 0 3.9762298490452244 0.27363249380559285 3.5286106992343047 3 1 0
2074 1 1 0 3.2523747670879004 0.7657953281298522 2.797672782210545 0 -1 -2
684 1 1 0 5.4954454676201445 0.9723639825128841 2.227458840120237 0 2 -2
5848 1 1 0 5.012280574866253 0.17300951627726063 2.987861910454872 2 0 2
6017 1 1 0 7.036386103837311 0.22491573240871884 2.6129423101634677 -2 0 -2
3562 1 1 0 6.946569387425413 0.5177612067203133 3.6229697144700594 0 3 3
1353 1 1 0 6.313017790579671 1.4234167981406634 2.892438924078481 1 -1 0
2439 1 1 0 7.794651711996181 1.5117236864645351 2.9762961728542425 -1 -1 0
5340 1 1 0 7.874532258195057 0.708599418744623 2.081309420923405 1 1 0
806 1 1 0 8.060031156588177 1.6707002323151494 1.8896333900046278 -1 2 2
5885 1 1 0 8.184699212090138 0.5782382439711313 3.1442223483026464 -1 -1 3
3353 1 1 0 8.957390577270859 1.2996626475773012 2.7641029405792175 -1 -1 2
6739 1 1 0 9.24032686454087 0.4420250340972003 2.32013880654769 2 2 -1
5779 1 1 0 10.172662558071108 0.9757683456136794 1.9174818313445623 -1 0 1
5824 1 1 0 10.250726772050493 1.4868224970642916 2.9842307623372566 2 -1 1
300 1 1 0 9.548195710216541 0.5854661307917288 3.235711321449184 2 0 2
2759 1 1 0 10.963651430787442 0.5848668336276526 2.8730219154393577 -1 1 3
4566 1 1 0 0.21009126076318538 2.891537354125875 2.2913604911203658 -2 -1 0
5560 1 1 0 0.6453357888542282 3.655289527840631 2.650828879032827 0 -2 0
899 1 1 0 0.823775416496966 1.9917548815711614 2.3803672346815357 0 0 2
2373 1 1 0 1.3709023130703826 3.0099190067935724 2.262761385839776 -1 -1 2
5722 1 1 0 1.3013863702395538 3.582714750785541 3.583851627990843 1 0 0
4587 1 1 0 2.0298846708551146 2.2171689086001845 1.979595149733175 -2 -1 -1
5439 1 1 0 2.8900339746010606 1.8788924428108291 3.0261701820861533 1 0 1
3177 1 1 0 3.958221819788381 2.2035238254300222 2.0796464969289117 1 2 0
4358 1 1 0 4.529186002121319 2.8289270866088767 3.4128452283811455 -1 1 1
5861 1 1 0 3.686510252314051 3.0458891712352063 2.668584419131921 1 0 2
152 1 1 0 6.238117259466482 2.8622221356813253 3.14605381820809 -1 1 5
5681 1 1 0 5.539490169192227 3.3028555819225587 2.5913333737054858 1 1 -1
2278 1 1 0 5.464009375684426 2.008275994258093 3.3228129234460457 -2 -1 0
3896 1 1 0 7.231122030852989 3.3411211188888688 2.2996277224798845 2 -2 1
6304 1 1 0 7.32863769697733 2.618434100926835 3.0758040784121525 2 1 -1
4220 1 1 0 8.808035837329625 2.7320538253655937 2.3930898782382015 1 2 2
3055 1 1 0 8.268318977795014 2.4751972064341676 3.52145427675708 2 -1 0
4944 1 1 0 10.894422277226763 2.587243416520651 2.5609456955708816 1 2 -1
675 1 1 0 9.520102428580895 2.1187519252518405 3.5254582014566687 0 2 1
3159 1 1 0 10.828786014874481 3.3464100600016935 3.5986823003767836 -1 2 -2
1668 1 1 0 10.190137667543707 2.0360046674283296 1.883926890605394 1 0 0
5143 1 1 0 9.716769092145798 3.099796766773346 3.0711358779437474 0 -1 -1
6110 1 1 0 1.0304313099082618 4.505950652155059 3.1225811293592183 -2 -1 1
1258 1 1 0 2.04337098117735 3.8495463555211296 2.032440827499373 0 -2 1
1058 1 1 0 1.8638383033479962 5.412842129082463 3.485791800250824 -3 1 -3
4185 1 1 0 2.0575873833842584 4.653709852219335 2.7111441767048894 2 2 1
5111 1 1 0 3.246552369183634 4.723380814085276 2.272541151218763 0 0 1
5107 1 1 0 4.2523215710070845 4.614781901071238 3.0266943734761944 0 -2 1
6234 1 1 0 4.37356067753113 3.865662023792724 2.266031225777705 1 0 1
908 1 1 0 3.2041942426478514 4.278601465518647 3.3226606608396807 1 -1 1
3665 1 1 0 5.445580844139252 4.692183223100479 3.13134794999993 1 2 1
1994 1 1 0 4.8437115711911645 5.372367832308404 2.616824420164526 1 1 -1
4595 1 1 0 7.530070618823479 5.32244105549452 2.327606535803583 -1 2 0
3102 1 1 0 6.450928641729362 4.005992684560549 2.106702277148585 0 -2 -2
3566 1 1 0 6.717394775904885 3.712793634269136 3.4780282183985274 -1 -1 0
4415 1 1 0 6.4801038618579145 5.0300087983624895 1.9137791030800322 2 3 3
6483 1 1 0 6.989864712531056 4.563274192697632 2.942549153807551 -1 1 0
950 1 1 0 7.835111848111023 4.107261812720828 2.591614452991902 -1 1 -1
4520 1 1 0 8.897230627614887 3.8149500140509556 2.6586239490392254 -1 2 1
2046 1 1 0 8.921794554451012 5.023510541153542 2.284380603150549 0 1 -2
3779 1 1 0 7.958662852398595 4.905263964339557 3.216898040666016 1 0 0
496 1 1 0 9.806633798229916 4.281575019105628 3.044858752573495 0 1 2
4150 1 1 0 9.948891984243925 4.033450089611603 1.9119486095935128 1 0 -1
3763 1 1 0 10.581399387922582 5.237498510052907 3.515925208370369 0 1 0
5415 1 1 0 10.656332135560103 4.7044444313416145 2.527533218191839 1 0 -3
1560 1 1 0 10.99677501996183 3.7728885294883066 2.4281940079152964 -2 0 -2
3376 1 1 0 0.8115029148838521 1.4265923790445147 4.0484573827435195 1 1 -1
2180 1 1 0 1.8656661598740945 1.4961936951887669 4.35717136592831 0 0 0
1793 1 1 0 2.8538573503067606 0.9219894342960614 4.917704504156712 -2 1 0
5293 1 1 0 2.579073530343604 0.1196019755449251 4.271268798152479 0 1 -1
4612 1 1 0 3.0590242165141124 1.1793488428024368 3.8229950548691742 0 -1 2
2642 1 1 0 3.7237936328135315 1.405587664640365 4.708484546543089 -2 0 -1
2037 1 1 0 4.354802396926283 0.5212211022198823 4.528832859177799 1 -1 2
4155 1 1 0 5.470512659438291 0.6252918431120076 4.31465826314132 -1 1 0
2910 1 1 0 4.969843739121378 1.4974597434832966 4.12847196757724 -1 1 1
3432 1 1 0 4.921845756340272 0.35150345093083474 5.441389559642084 -1 -1 1
4672 1 1 0 7.770279344690149 0.38604331869210423 4.468184822176163 -1 -1 0
6104 1 1 0 8.404115215224945 1.290651477908041 5.0889241358016655 -1 0 0
6072 1 1 0 8.617894329705505 0.3325458589161815 5.414312070380777 0 0 -1
5701 1 1 0 8.615680753324668 1.4339778469600035 4.077369815498588 2 -2 -2
472 1 1 0 9.124754931001576 0.6597344224002553 4.508814296438748 1 2 1
4340 1 1 0 9.85318732117701 0.47398515845711114 5.490483418355791 0 0 0
4038 1 1 0 10.554007664771376 0.6052003669284169 3.972473104139655 0 0 1
6400 1 1 0 9.904022762486333 1.3931087105120303 4.247534820899517 2 1 0
5108 1 1 0 9.497823979240852 1.4247754750218857 5.1724634710907 1 1 -2
6634 1 1 0 10.65328985029946 1.1745196941719955 5.247794291952071 -1 1 0
6705 1 1 0 1.0210561054837377 2.1379831584303903 4.769910582268018 1 0 1
4610 1 1 0 1.5592188880466207 3.6245927477597686 4.600950208733987 0 2 1
3072 1 1 0 0.4808473619013939 3.144805685627035 4.8587761378487695 -2 -1 -1
5617 1 1 0 1.8884960318695492 2.4108980692396393 3.7357736086501894 1 1 1
3702 1 1 0 2.5934901029491697 3.4166070952707357 3.7222417948892694 -1 1 0
6723 1 1 0 2.6904878697735675 2.4745438311030377 4.331418135049091 -2 1 1
1392 1 1 0 3.357790978091592 3.073075076288628 5.147587229616746 0 -1 1
2614 1 1 0 4.055613783201484 2.0002652385317337 4.020676832960009 0 0 1
5536 1 1 0 3.5151418416552036 2.891754848711252 3.8036325407627674 1 1 3
1191 1 1 0 5.965795157246969 3.0417247647155436 5.315099449348991 1 0 1
542 1 1 0 5.160357534029101 2.262395825818541 5.137462026627774 1 0 1
767 1 1 0 6.126021200232725 1.862719260132322 4.732334076072831 0 1 0
2669 1 1 0 4.760552612534656 3.0685256817844193 4.554698299769113 1 1 -1
2986 1 1 0 6.2451174043333655 2.8291177969159773 4.2326854770561315 -2 -1 3
259 1 1 0 5.498406121120123 3.490185057280634 3.705163180917666 -1 0 0
1409 1 1 0 7.824009722310962 2.3679185467082493 4.783188753254504 -1 2 -2
4148 1 1 0 7.346251854716537 1.8774272298938417 3.933729737468985 0 -1 0
1477 1 1 0 7.2011083882551015 3.1954259533927964 4.453779664531802 -3 -1 -1
168 1 1 0 9.27051049291892 3.6112023621297165 4.9959680799603925 2 0 0
4052 1 1 0 9.03684467812696 2.6144734672156065 4.262806344119557 -1 1 0
1579 1 1 0 8.69182599773268 2.624848369138572 5.426649898339894 -1 1 3
587 1 1 0 10.100606751449124 2.7533784394528795 4.5228647381472875 -2 0 -1
3122 1 1 0 10.992150793770872 3.4524979039184727 4.6545115491773075 1 -1 1
2979 1 1 0 10.534315333565587 2.0948751649892534 3.839215288616459 0 1 3
5158 1 1 0 10.31368986591283 3.2653984956691793 5.4964253439348845 1 0 -1
4270 1 1 0 0.20520278861951324 4.33761241004595 5.240682793604597 2 0 1
5205 1 1 0 0.6488677216297538 5.361810865393409 5.196320573805976 0 0 3
630 1 1 0 0.9079928064400165 4.438225352232338 4.229326403791142 0 -2 1
667 1 1 0 2.7008425877323416 4.713081036015988 4.896390981681794 1 0 3
6599 1 1 0 1.9024008176458502 4.4949159602528415 3.9140481796888733 -1 3 3
4692 1 1 0 1.6454609500742348 4.9302652602647665 4.817286817980824 -1 0 1
222 1 1 0 3.634777675275584 3.980108898840753 5.376344348151428 0 -2 1
4698 1 1 0 4.197847263183093 5.0442172389647135 4.7556670306379845 -3 1 2
2156 1 1 0 3.31263528012344 3.96699578439152 4.343283233373171 2 2 1
6717 1 1 0 4.187740330093947 3.8266086670057704 3.750054772592447 0 1 3
988 1 1 0 3.3445465024335963 5.008552446989799 4.122643898811699 0 0 3
4462 1 1 0 5.45257237876923 4.028748576977509 5.438123391676002 1 0 0
6628 1 1 0 6.278128874377516 3.859731098720108 4.621223975614755 3 1 -3
6498 1 1 0 4.844821570304843 4.865321630248692 3.9562622109254315 -1 3 0
205 1 1 0 6.2814765159085155 5.064637409149738 3.713085601126988 1 2 -1
520 1 1 0 5.635662476755126 4.8104310555335825 4.727587249038154 -2 0 3
6587 1 1 0 4.73846590213185 4.16140310612442 4.694171737169457 -1 0 1
489 1 1 0 7.043722478910979 4.7599601578484805 4.4856283780752255 1 -1 0
6340 1 1 0 8.03027390208673 3.9936825873460307 4.874035407339134 0 -2 2
801 1 1 0 8.94057408494344 4.52477507206657 4.540227773774721 1 2 3
3181 1 1 0 7.905984967299481 3.7325471169811295 3.728536022085597 0 -1 2
3635 1 1 0 9.634385541213266 3.719609367149003 3.9604240491050025 1 0 -1
1736 1 1 0 10.842618399161754 4.515179867271308 5.180777763295464 -2 3 1
3329 1 1 0 10.557757908322888 4.245969873568033 4.040747034959539 0 0 1
6696 1 1 0 9.777406538034858 5.013929442566312 4.214622349988097 0 0 1
4081 1 1 0 0.8186227495963943 1.0977785344264708 6.639563055539728 -2 1 1
4981 1 1 0 0.4557538691067109 1.562224462787113 5.734483940258517 1 -1 1
4810 1 1 0 3.1418084497062746 0.24096563523359996 6.820214168356378 -1 2 -1
1956 1 1 0 1.964757506643087 0.6887348819183569 6.837446415956573 0 1 2
5721 1 1 0 1.9358855573428373 0.6789025149416393 5.655213924445156 0 0 1
2835 1 1 0 2.7872524967008205 1.065336817830406 6.1790265433693605 0 -3 2
3463 1 1 0 4.066530015189421 1.1324714218883805 6.821698964967467 0 1 -1
6249 1 1 0 3.432871521857862 0.18977060521156786 5.720652836156051 2 0 -1
5849 1 1 0 4.213632446922889 1.1237335975275684 5.706275543283103 2 2 1
6408 1 1 0 5.266798035152613 0.8784185652813334 6.21096053649698 2 -1 0
4478 1 1 0 6.146217329865302 0.9711138029429 6.790931439147264 2 2 1
1063 1 1 0 6.104758285036012 1.1388494387204111 5.579573457299219 1 2 0
1493 1 1 0 5.064016370491826 0.7082173500765904 7.212468784382645 -1 -2 1
1469 1 1 0 5.305789689626291 1.7506258707015099 7.121177916829554 -1 -1 2
4746 1 1 0 6.724620365223419 0.2641223256221499 5.777666010249603 -1 2 1
2744 1 1 0 7.391490404626194 1.5855037893708592 6.141597801573502 0 2 0
1809 1 1 0 7.2771765756107225 0.3204539642567983 6.757667929606772 -3 1 1
708 1 1 0 8.28669494273072 0.27482902592004593 7.069871788871393 0 0 -1
4910 1 1 0 9.09428243820457 0.6251905869792914 6.369739678719634 0 2 0
3195 1 1 0 10.392395908610732 0.3909071994491943 6.482665139686262 -5 1 1
4512 1 1 0 10.039585298355549 1.483759877964036 6.107506161368152 1 -1 -1
6552 1 1 0 1.0421819703707034 2.1579876553831285 6.206191208956152 0 2 0
909 1 1 0 1.5492679712238249 3.210199213656911 5.655115366799834 1 0 -1
2820 1 1 0 1.3778019812395037 2.1911638463641783 7.141394546806144 2 0 0
4767 1 1 0 0.8911664184328455 3.4317726395964705 6.626430329564813 -2 1 0
1167 1 1 0 2.2947319890393945 2.5279618566812703 6.425540180402425 0 1 -1
6224 1 1 0 2.6991777530701455 3.3934685860845653 5.830241366462972 3 2 2
3581 1 1 0 3.216839579724113 1.9698250376040205 7.18908517724675 -3 -2 0
6290 1 1 0 4.408243685928356 2.2627842557821176 7.040690293116232 0 1 1
4540 1 1 0 3.179341367992674 2.021817775989898 5.6925569637323 1 1 1
6158 1 1 0 3.6914997798647247 2.96238146389575 6.237780927240186 1 2 2
6725 1 1 0 4.417041260366635 2.1347827310668492 5.916338046569014 0 1 0
2136 1 1 0 5.595056507063528 2.008714646914618 5.982899007192015 1 0 0
4689 1 1 0 4.72981882354125 3.158885832958129 5.743206895296594 0 1 -1
1348 1 1 0 5.297162605373733 2.9189874497557726 6.529320164479592 -1 1 -1
6315 1 1 0 6.878813281742521 3.4061546564650764 7.138384670814826 3 -1 -3
6323 1 1 0 6.521642803401467 2.1064990878342793 6.922966913048041 0 2 1
759 1 1 0 7.824097645523053 3.135831154777531 5.83164925458587 -2 0 -1
6345 1 1 0 6.894718693807587 2.262260255722593 5.581015419272486 1 1 0
4397 1 1 0 6.70680567483177 3.2756581095529067 6.029554686503987 -1 -1 1
3680 1 1 0 9.036250410655827 2.7110645549216357 6.953445253105441 -1 0 1
2002 1 1 0 8.700366011970091 1.8669628501176603 6.5341504696431 1 1 1
299 1 1 0 8.164442987645401 3.587602401118037 6.632582153017971 0 0 1
1781 1 1 0 10.903510615728372 2.4706432325477485 6.811014461025612 1 2 3
4653 1 1 0 9.74963953390773 1.928781133462722 7.23344604584179 -2 2 0
3101 1 1 0 9.794430926580391 2.463019955731045 6.098919487881011 1 -1 0
492 1 1 0 0.5557401749841671 4.523165154275109 6.582555552490668 0 0 1
996 1 1 0 1.231848495396932 4.857622982924563 5.934382958966221 -2 0 0
1055 1 1 0 2.1987069115801754 5.251195945234362 6.289797418460666 0 -1 1
319 1 1 0 1.8542960058513938 5.063621998298089 7.275977449954248 0 -2 0
874 1 1 0 2.892965531197171 4.538344740254213 5.992624344331411 1 2 -1
735 1 1 0 2.9327171570413926 5.405788243205008 7.174491207354666 -2 2 -3
2021 1 1 0 2.797238633965562 3.9887274185285166 6.949513932922625 -3 -2 0
4082 1 1 0 1.8522401282687775 3.9452287371241885 6.640208238308921 2 0 0
5857 1 1 0 3.8438649218275582 4.219153072387195 7.207811641626881 1 1 2
5470 1 1 0 4.0035586178518905 4.150272230799125 6.247638511688158 0 1 3
4026 1 1 0 5.099983531143586 4.9457208161801764 7.120202451072486 1 -2 1
3786 1 1 0 5.6680922256372925 5.332778165841027 6.201127935462437 0 -1 0
4644 1 1 0 5.935911782588757 4.047858945579884 6.531687745369421 -1 2 0
3917 1 1 0 4.950314263014544 3.9122252044281924 7.048381614642036 -1 -1 0
2511 1 1 0 4.868405260665904 4.957426213120897 5.5426807937454425 0 0 -1
2563 1 1 0 6.381839700292398 4.443339698430793 5.617113004182008 -1 0 0
2508 1 1 0 7.394474368732209 4.057737710894364 6.159588358354682 0 -2 -2
6488 1 1 0 7.201413127450585 5.499982234535609 5.772244680712947 0 2 1
1880 1 1 0 8.417986057324887 4.742368590673527 6.104988231774285 -3 2 0
4342 1 1 0 9.353968621110841 3.689387208054851 6.060262409926014 4 0 0
5835 1 1 0 9.335253979479045 3.7894610692989996 7.240403181426843 0 0 -1
1521 1 1 0 9.40270583560936 4.751891017688109 5.97258752697218 -1 1 2
1487 1 1 0 7.946548688455206 4.618894835747596 7.0171941693735445 0 -1 2
5326 1 1 0 10.807102162496118 4.976837205869993 6.246878025879833 2 -2 0
3291 1 1 0 10.232493724614033 5.008456560211633 7.3159087841658454 -1 2 2
249 1 1 0 10.504336222673892 3.8679549207947868 6.548392287425387 1 3 -2
2787 1 1 0 1.401572767309121 1.6889600984900404 8.05490357993961 -1 2 2
4817 1 1 0 0.6438148168938745 1.1900986327092542 8.467854904420749 3 0 1
935 1 1 0 2.082290383533252 1.5487678280301496 8.780142631072293 -2 1 0
2985 1 1 0 2.6116734521929623 0.9833766353640095 7.885901723404571 -1 -1 1
4085 1 1 0 2.39899584487354 0.40022817833657837 9.161332030217881 1 1 -3
6164 1 1 0 3.968417518279666 0.7346044838240647 7.688565068990027 -1 2 -1
4686 1 1 0 3.3693640082586382 1.6120892840297731 8.29726964461103 1 0 -3
6045 1 1 0 4.101720024320424 0.8960992223294532 8.720605689089801 -3 -1 0
5371 1 1 0 4.5608400605472275 1.6174561370226208 7.997895099301318 0 -1 2
5396 1 1 0 3.384573751567494 0.062041200312406175 8.827058384327676 0 -1 1
404 1 1 0 5.312199150251654 0.32022095322783944 9.150108191473077 1 2 -1
4757 1 1 0 5.413922132841482 1.0453043128537893 8.249313132688513 -1 -1 -1
1187 1 1 0 6.203996579850366 1.3038318043847978 8.926719485485851 1 1 0
3228 1 1 0 6.0961894861469 1.664039768458678 7.830113842295351 -1 0 2
1874 1 1 0 7.019058802156458 0.9532808199268111 7.551186354432119 2 1 -1
4855 1 1 0 7.184100427515441 0.6242950558429863 9.132314762261238 1 -1 0
6187 1 1 0 7.715562460065119 0.897898015057188 8.411074939616602 -1 1 -1
4656 1 1 0 6.384714234690877 0.40097012646827873 8.194598743412653 -1 0 2
4345 1 1 0 8.336365535673913 1.7857090736385617 8.71862200839015 1 3 1
1937 1 1 0 8.170184503609091 1.4373159865153649 7.546058298514325 -2 -3 0
576 1 1 0 9.118829829822712 1.0379432294968396 7.606033728806269 0 -1 -1
3143 1 1 0 8.971551710225986 0.8268610126599435 8.591720540473164 0 1 0
4352 1 1 0 10.81857616770915 0.4502856732233613 7.916412948098147 1 0 1
2065 1 1 0 10.752715869325892 1.691373417038403 7.588911066871094 1 0 3
417 1 1 0 9.54090471172053 1.6066233020740417 9.13951478701589 1 1 0
263 1 1 0 10.206978964259823 1.0489090603193219 8.567244054050974 -2 2 1
5069 1 1 0 1.0950775502202768 3.1235650897015903 7.694754135731549 2 0 -1
2335 1 1 0 0.15432167321927584 2.560768602822728 7.56231378613637 0 2 1
6201 1 1 0 0.9636164920212879 2.050092526284065 9.097986541492729 1 1 -2
1889 1 1 0 0.2927794121496939 2.982625692123819 8.464049624595075 -2 -1 -1
2212 1 1 0 1.1851990285480474 3.4876232658120387 8.776740489160037 -1 3 0
5219 1 1 0 2.7853066269377575 2.58688914956354 8.538599842367102 4 2 1
3631 1 1 0 1.8250177522935087 2.601852581934646 8.48333167372398 -1 -1 -1
4602 1 1 0 2.626422673407891 3.1101289809372066 7.4961329761018645 2 1 0
1980 1 1 0 4.400531527648061 3.274595734284422 7.487131429549735 0 0 0
1362 1 1 0 3.4326556236915704 3.640990493396105 7.878264917929788 0 2 2
981 1 1 0 3.837234127735849 2.6925758404095905 8.138347580164652 -2 -2 1
3429 1 1 0 4.171910916003732 2.264991399943806 9.023015736360353 0 0 -1
945 1 1 0 5.488940404863613 2.3532940233050885 8.474143764735386 -2 1 -1
704 1 1 0 5.646665885823595 2.741720310191501 7.5854703500087215 1 -4 -1
5907 1 1 0 5.945997296802136 3.287670543644427 8.748238201042208 3 0 2
6269 1 1 0 6.72668615556672 2.9017812773926206 8.02422796916694 2 2 -1
1213 1 1 0 7.398272808069032 2.2170070813326515 8.878115992267883 2 3 2
6551 1 1 0 7.289528391140966 1.9021080108204564 7.695379547474404 3 2 -1
553 1 1 0 7.6613016552026725 2.982436185413718 8.381051950123044 1 1 -1
6588 1 1 0 9.073370880713536 2.0670767362465274 7.998050873787634 1 1 2
398 1 1 0 7.910982989739672 2.74692662144425 7.419337583406192 -1 -1 -1
886 1 1 0 8.741164912851115 3.0808240664707007 8.089183438634521 -1 -1 -1
1603 1 1 0 8.963592938295697 2.6031488046344538 8.983548972571445 -1 -1 0
580 1 1 0 10.50084335664662 2.0497941830746598 8.728188390309711 3 2 2
3426 1 1 0 9.80497574307583 2.769054785085891 7.6685346766476306 -2 -1 2
1838 1 1 0 0.2717127118889238 4.096246751705926 7.546730301115156 -1 2 3
5300 1 1 0 0.8289379612637451 5.168098648314904 7.9339386868624056 0 -2 -3
5620 1 1 0 0.17328610821696266 5.139850670746995 8.836187652512965 2 2 -2
1044 1 1 0 1.5927114426197748 4.313387072171608 7.9790304526921645 1 0 -1
5148 1 1 0 2.6143454237653665 5.1967857274457625 8.601569036919445 1 -3 1
2258 1 1 0 2.5904098180466404 4.092967554241218 8.219839416702738 2 0 2
4588 1 1 0 1.7458979779679475 4.70357491024577 9.02343355505204 2 1 1
238 1 1 0 3.8134871122295935 5.483258271472854 8.437512010684372 -2 2 1
6659 1 1 0 3.686744931547672 3.7069277670494256 9.112581735442278 3 0 1
5451 1 1 0 3.946721613347482 4.490946289243651 8.239022582413073 -1 -2 3
3160 1 1 0 5.755740026481092 4.110709776448184 7.925100388628225 0 1 1
2208 1 1 0 4.947055334803763 3.6936244331945103 9.033940890359549 -1 -1 -2
1290 1 1 0 6.133745510571309 4.304469114399678 9.089172973526766 -2 2 -2
6582 1 1 0 5.872478921003438 5.1417237847426955 8.618775258977996 1 1 -3
2433 1 1 0 4.905572284042839 4.789976930928728 8.726713196783905 0 0 1
4697 1 1 0 7.302449422025774 5.162441502949374 7.8244052745726975 2 -1 -2
3337 1 1 0 6.3722071809732785 5.158085089164098 7.51188584024648 1 2 0
6082 1 1 0 6.8206629330043524 4.155219906743895 7.846608495097654 0 -1 1
2309 1 1 0 6.878054856546551 5.36276299610662 8.900262607100208 1 0 1
6722 1 1 0 8.990638500923042 4.790202974714771 9.034302189184254 0 3 1
6389 1 1 0 8.158568862751583 4.2244517571440365 8.60599977666097 0 2 1
2532 1 1 0 8.77805775159999 4.4142422529559076 7.871092888998107 0 2 -3
522 1 1 0 8.049222253230049 5.25335216060659 8.875643460176514 0 -3 1
6653 1 1 0 9.903932986834246 5.315965468158067 8.19035948438943 0 -1 -1
3656 1 1 0 10.923966094144092 4.864306567956994 8.053629339011028 2 1 1
5583 1 1 0 10.69757361670896 4.343406850501482 8.952080758518447 0 1 -1
5684 1 1 0 9.770810910282142 3.686097597723808 8.332315814472448 0 -2 2
955 1 1 0 10.739842451145984 3.744251070155143 7.652195106283093 0 1 -1
1128 1 1 0 0.09088313252120975 1.197895878823236 10.035656482969168 0 0 -1
2692 1 1 0 1.0858547684757984 0.91941161418599 9.572263979587749 1 -2 2
1955 1 1 0 0.5868341665660403 0.27313063832832446 10.247412821888915 1 0 0
5741 1 1 0 1.910299223223759 1.6177902886920768 10.464850842151273 -1 0 1
2286 1 1 0 3.056101245370039 1.454193448454867 9.534002632543157 2 2 0
1572 1 1 0 1.9946341434270367 0.3090715287652298 10.333144593210138 0 -1 0
5079 1 1 0 4.137926820599922 1.2725775870308396 9.89198026061754 0 0 -1
6465 1 1 0 4.258605105508236 0.3819099680657204 10.953550584023708 1 1 -1
3286 1 1 0 3.215633592687432 0.8283620427621914 10.4822551842344 -3 1 -1
4001 1 1 0 4.497720122527939 0.011986176550676584 9.637965928893898 -1 0 0
6065 1 1 0 3.849099527547214 1.5705407186482199 10.82415151896619 2 1 0
64 1 1 0 5.1894487373059555 1.2897338617340819 9.534696415249256 0 2 0
2890 1 1 0 5.4559096025960505 1.6012487179593295 10.597051552680705 1 2 2
900 1 1 0 6.365570600968972 1.2618871200919097 10.876195046686183 0 1 -2
322 1 1 0 8.257081535382753 0.6089127266893354 9.31952314524247 0 -2 0
3431 1 1 0 8.070346974596646 1.6203630538170601 9.876133253439123 0 0 0
1376 1 1 0 8.547986293203563 0.8396871459076397 10.433343056194136 1 1 1
3847 1 1 0 10.201910390176552 0.30221370981879586 9.280696206467038 0 1 -1
5146 1 1 0 10.266355430024522 1.1679307530095573 10.044758718985696 -1 2 0
1911 1 1 0 9.494932657396145 1.1681769131587099 10.938945701842437 0 3 -1
6081 1 1 0 1.5619727686524743 3.365494898197998 10.909826958990177 1 2 -2
266 1 1 0 0.0985363846553745 2.470125834357293 9.487176367413866 0 4 1
1087 1 1 0 0.006555253932569825 2.3041324266703107 10.79910093062449 2 0 -3
1292 1 1 0 1.3389730705020786 3.5723664095384793 9.880722053029144 -1 0 -2
4880 1 1 0 0.9143596072116864 2.3205337534534705 10.30514334927419 3 0 0
5951 1 1 0 2.188308819940584 2.328701577024117 9.495080441705543 1 -1 -3
5202 1 1 0 2.386592858032922 3.47438623545419 9.299966960104477 0 0 0
5837 1 1 0 2.3627826051085807 2.609942989229744 10.440082138873223 0 0 2
4202 1 1 0 3.736029287290521 3.435894318792515 10.858266176828154 1 0 0
5473 1 1 0 4.388404240879451 3.651669593228834 9.96538220023019 0 2 3
1252 1 1 0 3.2674238962139457 2.154770053896773 10.176879155369123 0 0 1
1134 1 1 0 4.3908486229869395 2.2624901083504625 10.089802545885005 -2 3 0
6596 1 1 0 5.691347427389112 2.9023511251240475 10.899219339665446 0 -3 -1
6741 1 1 0 5.348253279067861 2.39307675442753 9.695970812754785 4 1 -2
5585 1 1 0 5.8526499813529105 3.4188753158308027 9.83652649541701 -1 0 1
2262 1 1 0 6.617673469066317 2.75470629369781 9.38370036105274 -1 -1 1
811 1 1 0 7.430274572135012 3.464116690499351 9.837649102667068 2 4 1
3466 1 1 0 8.2886641176408 3.342773437699359 10.773431297938767 -2 -1 0
6182 1 1 0 8.73367282969308 2.3242739187685713 10.317007370319033 2 2 1
216 1 1 0 10.579862904416043 2.3820379404021508 10.287429696304082 -1 2 -3
4645 1 1 0 9.526319951327173 3.0274819878408508 9.891584471003869 0 1 0
5652 1 1 0 10.20903026902964 3.490854878619459 10.835257290618722 -1 1 0
4385 1 1 0 10.376811724184364 3.323286735029093 9.202732865980234 1 -1 2
5433 1 1 0 0.146379927225165 4.284765734703181 9.650041390366043 1 -2 0
5157 1 1 0 0.8369657300247337 5.227684165683607 9.72078301728963 2 1 1
3678 1 1 0 0.8236453975371014 4.248908637830977 10.765827333355393 -1 -1 -3
1067 1 1 0 3.0190969562506815 4.859160458346569 10.473911312046733 -1 -1 -1
134 1 1 0 1.9159975214931473 4.557822964737033 10.403708265463344 1 0 1
6170 1 1 0 2.6364169494274745 4.433214362644349 9.529797596538742 0 0 -1
1355 1 1 0 2.7896988446785125 3.805821752056516 10.33508067497717 -2 0 -1