LAMMPS (2 Aug 2023)
  using 4 OpenMP thread(s) per MPI task
Reading data file ...
  orthogonal box = (0 0 0) to (22 22 22)
  2 by 4 by 4 MPI processor grid
  reading atoms ...
  6752 atoms
Finding 1-2 1-3 1-4 neighbors ...
  special bond factors lj:    0        0        0       
  special bond factors coul:  0        0        0       
     0 = max # of 1-2 neighbors
     0 = max # of 1-3 neighbors
     0 = max # of 1-4 neighbors
     1 = max # of special neighbors
  special bonds CPU = 0.246 seconds
  read_data CPU = 0.544 seconds
Generated 0 of 0 mixed pair_coeff terms from arithmetic mixing rule
Neighbor list info ...
  update: every = 1 steps, delay = 0 steps, check = yes
  max neighbors/atom: 2000, page size: 100000
  master list distance cutoff = 2.8
  ghost atom cutoff = 2.8
  binsize = 1.4, bins = 16 16 16
  1 neighbor lists, perpetual/occasional/extra = 1 0 0
  (1) pair lj/cut, perpetual
      attributes: half, newton on
      pair build: half/bin/newton
      stencil: half/bin/3d
      bin: standard
Setting up Verlet run ...
  Unit style    : lj
  Current step  : 0
  Time step     : 0.003
Per MPI rank memory allocation (min/avg/max) = 8.736 | 8.758 | 8.778 Mbytes
   Step          Temp          Press          Volume         TotEng         E_pair         E_mol          E_vdwl         E_coul         E_long         E_bond        E_angle        Enthalpy        PotEng         KinEng           Lx             Ly             Lz            CPU      
         0   0              10.131801      10648         -4.0947227     -4.0947227      0             -4.0947227      0              0              0              0              11.883272     -4.0947227      0              22             22             22             0            
      1000   0.98497145     0.10017232     10648         -3.5995564     -5.0767947      0             -5.0767947      0              0              0              0             -3.4415832     -5.0767947      1.4772384      22             22             22             56.928128    
      2000   0.98757133     0.091555544    10648         -3.2696795     -4.7508171      0             -4.7508171      0              0              0              0             -3.1252951     -4.7508171      1.4811376      22             22             22             114.02913    
      3000   0.99317954    -0.18596702     10648         -3.0140838     -4.5036325      0             -4.5036325      0              0              0              0             -3.3073564     -4.5036325      1.4895487      22             22             22             171.31913    
      4000   1.0002538     -0.25087958     10648         -2.9659643     -4.4661229      0             -4.4661229      0              0              0              0             -3.361605      -4.4661229      1.5001585      22             22             22             219.32314    
      5000   0.99982173    -0.18608694     10648         -2.9439772     -4.4434877      0             -4.4434877      0              0              0              0             -3.2374389     -4.4434877      1.4995105      22             22             22             261.90613    
      6000   0.9998314     -0.20454296     10648         -2.9476328     -4.4471578      0             -4.4471578      0              0              0              0             -3.2701999     -4.4471578      1.499525       22             22             22             304.66413    
      7000   1.0174342     -0.23214179     10648         -2.9144083     -4.4403336      0             -4.4403336      0              0              0              0             -3.2804992     -4.4403336      1.5259253      22             22             22             373.48513    
      8000   0.99684967    -0.21623482     10648         -2.9454751     -4.4405281      0             -4.4405281      0              0              0              0             -3.2864805     -4.4405281      1.495053       22             22             22             456.59113    
      9000   0.99302943    -0.24041927     10648         -2.9711619     -4.4604855      0             -4.4604855      0              0              0              0             -3.3503065     -4.4604855      1.4893235      22             22             22             499.24313    
     10000   0.99017552    -0.25142829     10648         -2.96636       -4.4514033      0             -4.4514033      0              0              0              0             -3.362866      -4.4514033      1.4850433      22             22             22             541.03913    
     11000   0.99216658    -0.23563837     10648         -2.9554361     -4.4434656      0             -4.4434656      0              0              0              0             -3.3270412     -4.4434656      1.4880295      22             22             22             610.22013    
     12000   1.003415      -0.23322072     10648         -2.9521827     -4.4570824      0             -4.4570824      0              0              0              0             -3.3199751     -4.4570824      1.5048996      22             22             22             675.58313    
     13000   1.0016694     -0.2450436      10648         -2.9399134     -4.4421949      0             -4.4421949      0              0              0              0             -3.3263506     -4.4421949      1.5022815      22             22             22             743.15113    
     14000   1.0043038     -0.2030579      10648         -2.9427867     -4.4490192      0             -4.4490192      0              0              0              0             -3.2630119     -4.4490192      1.5062325      22             22             22             823.08913    
     15000   1.0136881     -0.24610331     10648         -2.9307291     -4.451036       0             -4.451036       0              0              0              0             -3.3188375     -4.451036       1.5203069      22             22             22             899.85313    
     16000   0.99662743    -0.22902461     10648         -2.9434946     -4.4382144      0             -4.4382144      0              0              0              0             -3.3046697     -4.4382144      1.4947197      22             22             22             946.42613    
     17000   1.0053587     -0.26572459     10648         -2.9395573     -4.447372       0             -4.447372       0              0              0              0             -3.3586088     -4.447372       1.5078147      22             22             22             996.40213    
     18000   0.98989886    -0.30297343     10648         -2.9720611     -4.4566895      0             -4.4566895      0              0              0              0             -3.4498545     -4.4566895      1.4846284      22             22             22             1039.7521    
     19000   0.99447766    -0.21392831     10648         -2.939407      -4.4309025      0             -4.4309025      0              0              0              0             -3.2767749     -4.4309025      1.4914956      22             22             22             1105.1411    
     20000   1.0067379     -0.2622566      10648         -2.9557268     -4.4656099      0             -4.4656099      0              0              0              0             -3.3693092     -4.4656099      1.5098831      22             22             22             1169.3611    
     21000   0.99905466    -0.22685992     10648         -2.9482232     -4.4465833      0             -4.4465833      0              0              0              0             -3.3059845     -4.4465833      1.49836        22             22             22             1254.5511    
     22000   1.0110885     -0.22590339     10648         -2.9241897     -4.4405978      0             -4.4405978      0              0              0              0             -3.2804425     -4.4405978      1.5164081      22             22             22             1328.0381    
     23000   0.99882719    -0.17707949     10648         -2.9427377     -4.4407566      0             -4.4407566      0              0              0              0             -3.2219945     -4.4407566      1.4980189      22             22             22             1411.1281    
     24000   1.0062032     -0.26972362     10648         -2.9458869     -4.4549681      0             -4.4549681      0              0              0              0             -3.3712449     -4.4549681      1.5090812      22             22             22             1473.6331    
     25000   1.0030519     -0.21469657     10648         -2.9369726     -4.4413276      0             -4.4413276      0              0              0              0             -3.2755521     -4.4413276      1.504355       22             22             22             1521.1361    
     26000   0.97916102    -0.1960696      10648         -2.9608598     -4.4293838      0             -4.4293838      0              0              0              0             -3.2700643     -4.4293838      1.468524       22             22             22             1570.5691    
     27000   1.0022597     -0.21587257     10648         -2.9302576     -4.4334246      0             -4.4334246      0              0              0              0             -3.2706917     -4.4334246      1.503167       22             22             22             1612.3611    
     28000   0.9811579     -0.22893863     10648         -2.9711199     -4.4426388      0             -4.4426388      0              0              0              0             -3.3321594     -4.4426388      1.4715189      22             22             22             1613.2385    
     29000   0.99698718    -0.3070663      10648         -2.9568788     -4.4521381      0             -4.4521381      0              0              0              0             -3.4411267     -4.4521381      1.4952593      22             22             22             1613.4385    
     30000   0.98925465    -0.20532602     10648         -2.9605022     -4.4441644      0             -4.4441644      0              0              0              0             -3.2843043     -4.4441644      1.4836622      22             22             22             1613.6376    
     31000   1.0081425     -0.24684662     10648         -2.9353095     -4.4472993      0             -4.4472993      0              0              0              0             -3.3245901     -4.4472993      1.5119899      22             22             22             1637.1391    
     32000   0.99636671    -0.23546546     10648         -2.9552571     -4.4495858      0             -4.4495858      0              0              0              0             -3.3265894     -4.4495858      1.4943287      22             22             22             1671.124     
     33000   1.0117108     -0.29115303     10648         -2.9352526     -4.452594       0             -4.452594       0              0              0              0             -3.3944051     -4.452594       1.5173414      22             22             22             1671.3224    
     34000   1.0034321     -0.23337257     10648         -2.9377055     -4.4426308      0             -4.4426308      0              0              0              0             -3.3057374     -4.4426308      1.5049253      22             22             22             1724.9741    
     35000   1.0005133     -0.22117792     10648         -2.954283      -4.4548307      0             -4.4548307      0              0              0              0             -3.3030838     -4.4548307      1.5005476      22             22             22             1778.5691    
     36000   0.99737539    -0.23519148     10648         -2.9420079     -4.4378495      0             -4.4378495      0              0              0              0             -3.3129083     -4.4378495      1.4958415      22             22             22             1834.6761    
     37000   0.99525405    -0.22641939     10648         -2.9397407     -4.4324007      0             -4.4324007      0              0              0              0             -3.2968073     -4.4324007      1.49266        22             22             22             1834.9123    
     38000   1.0020403     -0.22324381     10648         -2.9405879     -4.4434257      0             -4.4434257      0              0              0              0             -3.2926465     -4.4434257      1.5028378      22             22             22             1835.1122    
     39000   0.99325244    -0.27080034     10648         -2.9567927     -4.4464507      0             -4.4464507      0              0              0              0             -3.3838487     -4.4464507      1.489658       22             22             22             1835.3171    
     40000   0.99406872    -0.27830685     10648         -2.9667418     -4.457624       0             -4.457624       0              0              0              0             -3.4056356     -4.457624       1.4908822      22             22             22             1835.5203    
     41000   1.0028128     -0.29521585     10648         -2.9663194     -4.4703159      0             -4.4703159      0              0              0              0             -3.431879      -4.4703159      1.5039965      22             22             22             1835.7271    
     42000   0.99361925    -0.25761022     10648         -2.9511718     -4.4413799      0             -4.4413799      0              0              0              0             -3.3574267     -4.4413799      1.4902081      22             22             22             1835.9247    
     43000   0.98506282    -0.23741922     10648         -2.9666279     -4.4440033      0             -4.4440033      0              0              0              0             -3.3410414     -4.4440033      1.4773754      22             22             22             1851.2421    
     44000   0.97825284    -0.25360082     10648         -2.9850169     -4.4521789      0             -4.4521789      0              0              0              0             -3.384949      -4.4521789      1.4671619      22             22             22             1895.1671    
     45000   1.0063608     -0.28314534     10648         -2.9520889     -4.4614066      0             -4.4614066      0              0              0              0             -3.3986131     -4.4614066      1.5093177      22             22             22             1938.6061    
     46000   1.0028326     -0.30073739     10648         -2.9400409     -4.4440671      0             -4.4440671      0              0              0              0             -3.4143081     -4.4440671      1.5040262      22             22             22             1940.6476    
     47000   0.98917786    -0.19000728     10648         -2.9586803     -4.4422274      0             -4.4422274      0              0              0              0             -3.2583245     -4.4422274      1.483547       22             22             22             1953.0663    
     48000   0.97712402    -0.23977913     10648         -2.9869999     -4.4524689      0             -4.4524689      0              0              0              0             -3.365135      -4.4524689      1.4654689      22             22             22             1953.268     
     49000   0.99092964    -0.20833536     10648         -2.9602825     -4.4464569      0             -4.4464569      0              0              0              0             -3.2888304     -4.4464569      1.4861743      22             22             22             1953.4859    
     50000   1.0071018     -0.2453107      10648         -2.9404031     -4.4508321      0             -4.4508321      0              0              0              0             -3.3272615     -4.4508321      1.510429       22             22             22             1953.6901    
     51000   1.0170392     -0.18063813     10648         -2.9169304     -4.4422633      0             -4.4422633      0              0              0              0             -3.2017993     -4.4422633      1.5253329      22             22             22             1960.2422    
     52000   1.0001365     -0.19513862     10648         -2.9318583     -4.4318408      0             -4.4318408      0              0              0              0             -3.2395947     -4.4318408      1.4999825      22             22             22             1960.4429    
     53000   1.0207938     -0.18782798     10648         -2.9012271     -4.432191       0             -4.432191       0              0              0              0             -3.1974345     -4.432191       1.5309639      22             22             22             1960.6421    
     54000   1.0067514     -0.2808533      10648         -2.9543082     -4.4642117      0             -4.4642117      0              0              0              0             -3.3972179     -4.4642117      1.5099035      22             22             22             1960.9342    
     55000   0.99415498    -0.22079842     10648         -2.9604764     -4.451488       0             -4.451488       0              0              0              0             -3.3086786     -4.451488       1.4910116      22             22             22             1961.1389    
     56000   0.99826327    -0.30959801     10648         -2.963532      -4.4607051      0             -4.4607051      0              0              0              0             -3.4517725     -4.4607051      1.4971731      22             22             22             1961.3423    
     57000   0.99476938    -0.23027648     10648         -2.9575567     -4.4494897      0             -4.4494897      0              0              0              0             -3.320706      -4.4494897      1.4919331      22             22             22             1961.5453    
     58000   1.0065268     -0.23469311     10648         -2.9189467     -4.4285133      0             -4.4285133      0              0              0              0             -3.2890611     -4.4285133      1.5095666      22             22             22             1961.7494    
     59000   0.98810705    -0.22375878     10648         -2.9586386     -4.4405796      0             -4.4405796      0              0              0              0             -3.3115093     -4.4405796      1.4819411      22             22             22             1961.9526    
     60000   1.0183495     -0.2275846      10648         -2.9242416     -4.4515396      0             -4.4515396      0              0              0              0             -3.2831457     -4.4515396      1.527298       22             22             22             1962.156     
     61000   0.98857289    -0.20678245     10648         -2.9616347     -4.4442744      0             -4.4442744      0              0              0              0             -3.2877336     -4.4442744      1.4826397      22             22             22             1962.3611    
     62000   0.99974533    -0.21079076     10648         -2.954992      -4.4543879      0             -4.4543879      0              0              0              0             -3.287412      -4.4543879      1.4993959      22             22             22             1962.5763    
     63000   1.0097026     -0.21953182     10648         -2.9378633     -4.4521929      0             -4.4521929      0              0              0              0             -3.2840681     -4.4521929      1.5143296      22             22             22             1962.7827    
     64000   1.0129917     -0.13616367     10648         -2.9082175     -4.4274799      0             -4.4274799      0              0              0              0             -3.1229495     -4.4274799      1.5192624      22             22             22             1962.9854    
     65000   1.006721      -0.199574       10648         -2.9289581     -4.438816       0             -4.438816       0              0              0              0             -3.2436892     -4.438816       1.5098579      22             22             22             1963.1876    
     66000   1.0060126     -0.25003326     10648         -2.9485107     -4.4573061      0             -4.4573061      0              0              0              0             -3.3428167     -4.4573061      1.5087954      22             22             22             1963.3891    
     67000   0.98773206    -0.28017944     10648         -2.9689072     -4.4502859      0             -4.4502859      0              0              0              0             -3.4107542     -4.4502859      1.4813787      22             22             22             1963.5937    
     68000   0.98349908    -0.2383509      10648         -2.9778305     -4.4528607      0             -4.4528607      0              0              0              0             -3.3537133     -4.4528607      1.4750301      22             22             22             1963.7973    
     69000   0.99265528    -0.25806333     10648         -2.9560793     -4.4448416      0             -4.4448416      0              0              0              0             -3.3630488     -4.4448416      1.4887624      22             22             22             1964.0005    
     70000   0.99808202    -0.31259352     10648         -2.9694618     -4.4663631      0             -4.4663631      0              0              0              0             -3.4624262     -4.4663631      1.4969013      22             22             22             1964.2039    
     71000   0.99915844    -0.24046311     10648         -2.9577175     -4.4562332      0             -4.4562332      0              0              0              0             -3.3369312     -4.4562332      1.4985157      22             22             22             1964.4082    
     72000   0.9855431     -0.15283698     10648         -2.948019      -4.4261147      0             -4.4261147      0              0              0              0             -3.1890451     -4.4261147      1.4780957      22             22             22             1964.6127    
     73000   1.0099676     -0.16291668     10648         -2.9082203     -4.4229473      0             -4.4229473      0              0              0              0             -3.1651422     -4.4229473      1.514727       22             22             22             1964.8167    
     74000   0.99621033    -0.18799876     10648         -2.9483381     -4.4424323      0             -4.4424323      0              0              0              0             -3.2448148     -4.4424323      1.4940942      22             22             22             1965.0192    
     75000   0.99231044    -0.2527009      10648         -2.9561635     -4.4444087      0             -4.4444087      0              0              0              0             -3.3546764     -4.4444087      1.4882452      22             22             22             1965.2209    
     76000   0.98370552    -0.23540039     10648         -2.9660311     -4.4413708      0             -4.4413708      0              0              0              0             -3.3372609     -4.4413708      1.4753397      22             22             22             1965.4253    
     77000   0.99970547    -0.20021992     10648         -2.9436915     -4.4430277      0             -4.4430277      0              0              0              0             -3.2594412     -4.4430277      1.4993361      22             22             22             1965.6293    
     78000   1.0085598     -0.21119182     10648         -2.9391752     -4.4517909      0             -4.4517909      0              0              0              0             -3.2722277     -4.4517909      1.5126157      22             22             22             1965.8321    
     79000   1.0037159     -0.24677023     10648         -2.9460382     -4.4513891      0             -4.4513891      0              0              0              0             -3.3351983     -4.4513891      1.5053509      22             22             22             1966.0317    
     80000   0.98595306    -0.22194345     10648         -2.953772      -4.4324825      0             -4.4324825      0              0              0              0             -3.30378       -4.4324825      1.4787106      22             22             22             1966.2324    
     81000   0.99342392    -0.25089511     10648         -2.9598573     -4.4497725      0             -4.4497725      0              0              0              0             -3.3555224     -4.4497725      1.4899152      22             22             22             1966.4379    
     82000   1.0093956     -0.21834186     10648         -2.9296697     -4.4435389      0             -4.4435389      0              0              0              0             -3.273998      -4.4435389      1.5138691      22             22             22             1966.641     
     83000   0.99959286    -0.20414043     10648         -2.9392863     -4.4384536      0             -4.4384536      0              0              0              0             -3.2612187     -4.4384536      1.4991672      22             22             22             1966.8428    
     84000   0.99916346    -0.20451262     10648         -2.9500958     -4.448619       0             -4.448619       0              0              0              0             -3.2726151     -4.448619       1.4985232      22             22             22             1967.043     
     85000   1.0013381     -0.19846828     10648         -2.9331626     -4.4349473      0             -4.4349473      0              0              0              0             -3.2461499     -4.4349473      1.5017847      22             22             22             1967.2446    
     86000   1.0057291     -0.24496895     10648         -2.941087      -4.4494573      0             -4.4494573      0              0              0              0             -3.3274065     -4.4494573      1.5083703      22             22             22             1967.4485    
     87000   1.0008559     -0.20001379     10648         -2.93625       -4.4373116      0             -4.4373116      0              0              0              0             -3.2516746     -4.4373116      1.5010616      22             22             22             1967.6508    
     88000   0.99473334    -0.2264302      10648         -2.9471414     -4.4390205      0             -4.4390205      0              0              0              0             -3.3042251     -4.4390205      1.491879       22             22             22             1967.8527    
     89000   0.9974567     -0.27744294     10648         -2.9664019     -4.4623654      0             -4.4623654      0              0              0              0             -3.4039334     -4.4623654      1.4959635      22             22             22             1968.0526    
     90000   0.99050846    -0.2707119      10648         -2.9680429     -4.4535856      0             -4.4535856      0              0              0              0             -3.3949595     -4.4535856      1.4855426      22             22             22             1968.2565    
     91000   0.9844923     -0.24703019     10648         -2.9707527     -4.4472725      0             -4.4472725      0              0              0              0             -3.3603228     -4.4472725      1.4765197      22             22             22             1968.4632    
     92000   0.99794193    -0.14361057     10648         -2.9314585     -4.4281497      0             -4.4281497      0              0              0              0             -3.1579345     -4.4281497      1.4966912      22             22             22             1968.6671    
     93000   0.9928146     -0.22435467     10648         -2.9515007     -4.4405021      0             -4.4405021      0              0              0              0             -3.3053112     -4.4405021      1.4890013      22             22             22             1968.8666    
     94000   1.0042839     -0.25854556     10648         -2.9450995     -4.4513023      0             -4.4513023      0              0              0              0             -3.3528296     -4.4513023      1.5062028      22             22             22             1969.0686    
     95000   0.99490343    -0.22947958     10648         -2.951944      -4.4440781      0             -4.4440781      0              0              0              0             -3.3138366     -4.4440781      1.4921341      22             22             22             1969.2708    
     96000   1.007229      -0.2201183      10648         -2.9468001     -4.4574198      0             -4.4574198      0              0              0              0             -3.2939297     -4.4574198      1.5106198      22             22             22             1969.4749    
     97000   1.0055941     -0.2102343      10648         -2.9315699     -4.4397377      0             -4.4397377      0              0              0              0             -3.2631124     -4.4397377      1.5081678      22             22             22             1969.6765    
     98000   0.99921494    -0.17568434     10648         -2.9340281     -4.4326286      0             -4.4326286      0              0              0              0             -3.2110848     -4.4326286      1.4986004      22             22             22             1969.8755    
     99000   1.0056745     -0.14803145     10648         -2.9333504     -4.4416387      0             -4.4416387      0              0              0              0             -3.1667981     -4.4416387      1.5082883      22             22             22             1970.0785    
    100000   1.0056484     -0.19715091     10648         -2.9300073     -4.4382564      0             -4.4382564      0              0              0              0             -3.2409171     -4.4382564      1.5082491      22             22             22             1970.2822    
    101000   1.0168725     -0.20035337     10648         -2.9121754     -4.4372583      0             -4.4372583      0              0              0              0             -3.2281355     -4.4372583      1.5250829      22             22             22             1970.4892    
    102000   1.0044605     -0.22745183     10648         -2.945894      -4.4523616      0             -4.4523616      0              0              0              0             -3.3045888     -4.4523616      1.5064677      22             22             22             1970.6912    
    103000   1.0211701     -0.1943485      10648         -2.9200204     -4.4515487      0             -4.4515487      0              0              0              0             -3.2265108     -4.4515487      1.5315282      22             22             22             1970.8943    
    104000   0.99543566    -0.21966913     10648         -2.9507053     -4.4436377      0             -4.4436377      0              0              0              0             -3.2971267     -4.4436377      1.4929324      22             22             22             1971.0969    
    105000   0.98750966    -0.18506878     10648         -2.9667431     -4.4477882      0             -4.4477882      0              0              0              0             -3.2585992     -4.4477882      1.4810451      22             22             22             1971.301     
    106000   1.012767      -0.18880074     10648         -2.920328      -4.4392535      0             -4.4392535      0              0              0              0             -3.2180694     -4.4392535      1.5189255      22             22             22             1971.5052    
    107000   1.0045435     -0.28360012     10648         -2.9532988     -4.4598909      0             -4.4598909      0              0              0              0             -3.4005402     -4.4598909      1.5065921      22             22             22             1971.7065    
    108000   1.0144313     -0.26804917     10648         -2.9386124     -4.460034       0             -4.460034       0              0              0              0             -3.3613298     -4.460034       1.5214216      22             22             22             1971.9096    
    109000   1.0003114     -0.20120307     10648         -2.9386396     -4.4388845      0             -4.4388845      0              0              0              0             -3.2559397     -4.4388845      1.5002449      22             22             22             1972.113     
    110000   1.0054146     -0.22965294     10648         -2.9456616     -4.4535602      0             -4.4535602      0              0              0              0             -3.3078276     -4.4535602      1.5078985      22             22             22             1972.3172    
    111000   1.0073543     -0.24224321     10648         -2.9476925     -4.4585002      0             -4.4585002      0              0              0              0             -3.3297135     -4.4585002      1.5108077      22             22             22             1972.521     
    112000   1.0025818     -0.16022909     10648         -2.9231636     -4.4268136      0             -4.4268136      0              0              0              0             -3.1758472     -4.4268136      1.5036499      22             22             22             1972.7223    
    113000   0.9957413     -0.1711055      10648         -2.9372835     -4.4306743      0             -4.4306743      0              0              0              0             -3.2071194     -4.4306743      1.4933907      22             22             22             1972.925     
    114000   0.99845907    -0.26346291     10648         -2.9542087     -4.4516755      0             -4.4516755      0              0              0              0             -3.3696935     -4.4516755      1.4974668      22             22             22             1973.128     
    115000   0.98807341    -0.23417216     10648         -2.9673053     -4.4491959      0             -4.4491959      0              0              0              0             -3.3365981     -4.4491959      1.4818906      22             22             22             1973.3316    
    116000   0.99227066    -0.22106477     10648         -2.9564884     -4.444674       0             -4.444674       0              0              0              0             -3.3051107     -4.444674       1.4881855      22             22             22             1973.5306    
    117000   0.98209093    -0.25697271     10648         -2.9865512     -4.4594694      0             -4.4594694      0              0              0              0             -3.3918008     -4.4594694      1.4729182      22             22             22             1973.733     
    118000   1.0087293     -0.27409489     10648         -2.9469514     -4.4598213      0             -4.4598213      0              0              0              0             -3.379203      -4.4598213      1.5128699      22             22             22             1973.935     
    119000   1.0049236     -0.18543146     10648         -2.9371844     -4.4443465      0             -4.4443465      0              0              0              0             -3.2296124     -4.4443465      1.5071622      22             22             22             1974.1394    
    120000   1.0070356     -0.13000439     10648         -2.9094899     -4.4198196      0             -4.4198196      0              0              0              0             -3.1145086     -4.4198196      1.5103297      22             22             22             1974.3422    
    121000   1.0082948     -0.2007034      10648         -2.9336316     -4.4458498      0             -4.4458498      0              0              0              0             -3.2501437     -4.4458498      1.5122181      22             22             22             1974.5475    
    122000   1.0050096     -0.28123504     10648         -2.952064      -4.4593552      0             -4.4593552      0              0              0              0             -3.3955756     -4.4593552      1.5072912      22             22             22             1974.7505    
    123000   0.99149043    -0.24616671     10648         -2.9575        -4.4445154      0             -4.4445154      0              0              0              0             -3.3457084     -4.4445154      1.4870154      22             22             22             1974.9542    
    124000   0.98398644    -0.29730886     10648         -2.9848932     -4.4606543      0             -4.4606543      0              0              0              0             -3.4537535     -4.4606543      1.4757611      22             22             22             1975.1575    
    125000   0.99945613    -0.23157973     10648         -2.9453823     -4.4443445      0             -4.4443445      0              0              0              0             -3.3105868     -4.4443445      1.4989622      22             22             22             1975.3588    
    126000   0.99197227    -0.25292221     10648         -2.9590304     -4.4467684      0             -4.4467684      0              0              0              0             -3.3578923     -4.4467684      1.487738       22             22             22             1975.5622    
    127000   0.99270089    -0.22480177     10648         -2.9536784     -4.4425092      0             -4.4425092      0              0              0              0             -3.308194      -4.4425092      1.4888308      22             22             22             1975.7662    
    128000   0.99563258    -0.25203398     10648         -2.9627305     -4.4559582      0             -4.4559582      0              0              0              0             -3.3601917     -4.4559582      1.4932277      22             22             22             1975.9694    
    129000   0.99950113    -0.21459735     10648         -2.9497932     -4.4488229      0             -4.4488229      0              0              0              0             -3.2882163     -4.4488229      1.4990296      22             22             22             1976.1714    
    130000   1.0092938     -0.2489362      10648         -2.9371812     -4.4508978      0             -4.4508978      0              0              0              0             -3.3297572     -4.4508978      1.5137166      22             22             22             1976.3723    
    131000   1.0145643     -0.15245297     10648         -2.9130485     -4.4346696      0             -4.4346696      0              0              0              0             -3.153469      -4.4346696      1.521621       22             22             22             1976.58      
    132000   1.0067063     -0.28075096     10648         -2.9533429     -4.4631786      0             -4.4631786      0              0              0              0             -3.3960912     -4.4631786      1.5098357      22             22             22             1976.7838    
    133000   1.0060858     -0.25794129     10648         -2.9333528     -4.442258       0             -4.442258       0              0              0              0             -3.3401298     -4.442258       1.5089052      22             22             22             1976.9883    
    134000   0.98212746    -0.21722606     10648         -2.9720925     -4.4450655      0             -4.4450655      0              0              0              0             -3.3146611     -4.4450655      1.472973       22             22             22             1977.1904    
    135000   0.99699231    -0.27964726     10648         -2.9647151     -4.4599821      0             -4.4599821      0              0              0              0             -3.4057229     -4.4599821      1.495267       22             22             22             1977.3906    
    136000   1.0033249     -0.22899285     10648         -2.936096      -4.4408605      0             -4.4408605      0              0              0              0             -3.297221      -4.4408605      1.5047645      22             22             22             1977.5933    
    137000   0.99896694    -0.30661335     10648         -2.9773018     -4.4755303      0             -4.4755303      0              0              0              0             -3.4608354     -4.4755303      1.4982285      22             22             22             1977.7966    
    138000   0.99175444    -0.20295978     10648         -2.9536961     -4.4411075      0             -4.4411075      0              0              0              0             -3.2737666     -4.4411075      1.4874113      22             22             22             1977.9983    
    139000   0.99381754    -0.24925024     10648         -2.9533101     -4.4438156      0             -4.4438156      0              0              0              0             -3.3463813     -4.4438156      1.4905055      22             22             22             1978.1983    
    140000   0.9753605     -0.25343556     10648         -2.9756252     -4.4384493      0             -4.4384493      0              0              0              0             -3.3752967     -4.4384493      1.4628241      22             22             22             1978.4011    
    141000   0.99012233    -0.29508012     10648         -2.976428      -4.4613915      0             -4.4613915      0              0              0              0             -3.4417735     -4.4613915      1.4849635      22             22             22             1978.6077    
    142000   0.97919402    -0.19871798     10648         -2.9601874     -4.4287609      0             -4.4287609      0              0              0              0             -3.2735685     -4.4287609      1.4685735      22             22             22             1978.8118    
    143000   0.99121631    -0.22390105     10648         -2.9601966     -4.4468009      0             -4.4468009      0              0              0              0             -3.3132917     -4.4468009      1.4866043      22             22             22             1979.0132    
    144000   0.98569469    -0.31559324     10648         -2.9903064     -4.4686295      0             -4.4686295      0              0              0              0             -3.4880015     -4.4686295      1.4783231      22             22             22             1979.2161    
    145000   1.0011052     -0.2600488      10648         -2.9622288     -4.4636641      0             -4.4636641      0              0              0              0             -3.3723294     -4.4636641      1.5014353      22             22             22             1979.4198    
    146000   1.0001001     -0.23902755     10648         -2.9511366     -4.4510645      0             -4.4510645      0              0              0              0             -3.3280864     -4.4510645      1.4999279      22             22             22             1979.6258    
    147000   0.99801955    -0.24881503     10648         -2.9524025     -4.4492102      0             -4.4492102      0              0              0              0             -3.3447874     -4.4492102      1.4968076      22             22             22             1979.8285    
    148000   1.0087176     -0.18923676     10648         -2.9396364     -4.4524887      0             -4.4524887      0              0              0              0             -3.2380654     -4.4524887      1.5128523      22             22             22             1980.0288    
    149000   0.99699206    -0.26055389     10648         -2.9522927     -4.4475593      0             -4.4475593      0              0              0              0             -3.3631898     -4.4475593      1.4952666      22             22             22             1980.2321    
    150000   0.9966621     -0.27800172     10648         -2.9632725     -4.4580442      0             -4.4580442      0              0              0              0             -3.4016852     -4.4580442      1.4947717      22             22             22             1980.437     
    151000   1.0087153     -0.20245566     10648         -2.9341169     -4.4469657      0             -4.4469657      0              0              0              0             -3.2533923     -4.4469657      1.5128488      22             22             22             1980.6445    
    152000   1.0050337     -0.28584277     10648         -2.9532219     -4.4605492      0             -4.4605492      0              0              0              0             -3.404         -4.4605492      1.5073273      22             22             22             1980.8479    
    153000   0.98794439    -0.24910984     10648         -2.9764115     -4.4581087      0             -4.4581087      0              0              0              0             -3.3692613     -4.4581087      1.4816971      22             22             22             1981.0472    
    154000   0.97631276    -0.22161193     10648         -2.9867683     -4.4510206      0             -4.4510206      0              0              0              0             -3.3362535     -4.4510206      1.4642522      22             22             22             1981.2509    
    155000   0.98520587    -0.21784102     10648         -2.966595      -4.4441849      0             -4.4441849      0              0              0              0             -3.3101334     -4.4441849      1.4775899      22             22             22             1981.4547    
    156000   1.0039712     -0.27956851     10648         -2.9575685     -4.4633023      0             -4.4633023      0              0              0              0             -3.398452      -4.4633023      1.5057338      22             22             22             1981.6599    
    157000   1.0057991     -0.31357246     10648         -2.9628644     -4.4713396      0             -4.4713396      0              0              0              0             -3.4573727     -4.4713396      1.5084752      22             22             22             1981.8603    
    158000   0.99860701    -0.2333094      10648         -2.958514      -4.4562026      0             -4.4562026      0              0              0              0             -3.3264462     -4.4562026      1.4976887      22             22             22             1982.063     
    159000   0.99214666    -0.32356534     10648         -2.9729093     -4.4609089      0             -4.4609089      0              0              0              0             -3.4831765     -4.4609089      1.4879996      22             22             22             1982.2662    
    160000   0.99394834    -0.26038969     10648         -2.9610983     -4.4518         0             -4.4518         0              0              0              0             -3.3717365     -4.4518         1.4907017      22             22             22             1982.4693    
    161000   0.98283836    -0.24767466     10648         -2.9685048     -4.442544       0             -4.442544       0              0              0              0             -3.3590913     -4.442544       1.4740392      22             22             22             1982.6735    
    162000   0.97979884    -0.19870198     10648         -2.9746144     -4.444095       0             -4.444095       0              0              0              0             -3.2879703     -4.444095       1.4694806      22             22             22             1982.8728    
    163000   0.99426564    -0.27596602     10648         -2.9721749     -4.4633525      0             -4.4633525      0              0              0              0             -3.4073772     -4.4633525      1.4911776      22             22             22             1983.075     
    164000   0.98899165    -0.29866408     10648         -2.9688035     -4.4520713      0             -4.4520713      0              0              0              0             -3.439801      -4.4520713      1.4832678      22             22             22             1983.2787    
    165000   1.0096483     -0.19212748     10648         -2.9163434     -4.4305915      0             -4.4305915      0              0              0              0             -3.2193311     -4.4305915      1.5142482      22             22             22             1983.4823    
    166000   0.99893937    -0.19617842     10648         -2.9408783     -4.4390654      0             -4.4390654      0              0              0              0             -3.2502545     -4.4390654      1.4981871      22             22             22             1983.6831    
    167000   0.99818131    -0.23082043     10648         -2.9513832     -4.4484334      0             -4.4484334      0              0              0              0             -3.3153903     -4.4484334      1.4970502      22             22             22             1983.8848    
    168000   0.99713083    -0.21616736     10648         -2.9529732     -4.4484479      0             -4.4484479      0              0              0              0             -3.2938722     -4.4484479      1.4954747      22             22             22             1984.0873    
    169000   0.99836737    -0.18371548     10648         -2.9356728     -4.4330021      0             -4.4330021      0              0              0              0             -3.2253948     -4.4330021      1.4973293      22             22             22             1984.2893    
    170000   1.0021035     -0.20345486     10648         -2.922973      -4.4259055      0             -4.4259055      0              0              0              0             -3.2438242     -4.4259055      1.5029326      22             22             22             1984.4917    
    171000   1.0108092     -0.22349059     10648         -2.9327996     -4.4487889      0             -4.4487889      0              0              0              0             -3.2852475     -4.4487889      1.5159893      22             22             22             1984.6951    
    172000   0.99354288    -0.21793572     10648         -2.9459636     -4.4360572      0             -4.4360572      0              0              0              0             -3.2896513     -4.4360572      1.4900936      22             22             22             1984.8971    
    173000   1.0099012     -0.30177814     10648         -2.9464244     -4.4610518      0             -4.4610518      0              0              0              0             -3.4223328     -4.4610518      1.5146274      22             22             22             1985.099     
    174000   1.0065128     -0.22192725     10648         -2.9273509     -4.4368965      0             -4.4368965      0              0              0              0             -3.2773334     -4.4368965      1.5095456      22             22             22             1985.3009    
    175000   1.0150778     -0.22862796     10648         -2.9311618     -4.453553       0             -4.453553       0              0              0              0             -3.2917113     -4.453553       1.5223912      22             22             22             1985.502     
    176000   1.0049629     -0.22490789     10648         -2.9324741     -4.4396952      0             -4.4396952      0              0              0              0             -3.2871571     -4.4396952      1.5072211      22             22             22             1985.7029    
    177000   0.99027845    -0.27920173     10648         -2.9715434     -4.4567411      0             -4.4567411      0              0              0              0             -3.4118485     -4.4567411      1.4851977      22             22             22             1985.9077    
    178000   0.9892133     -0.22304174     10648         -2.9710501     -4.4546503      0             -4.4546503      0              0              0              0             -3.3227901     -4.4546503      1.4836002      22             22             22             1986.1103    
    179000   0.99373236    -0.21873531     10648         -2.9519183     -4.4422961      0             -4.4422961      0              0              0              0             -3.296867      -4.4422961      1.4903778      22             22             22             1986.3133    
    180000   0.99201021    -0.27838722     10648         -2.9687859     -4.4565809      0             -4.4565809      0              0              0              0             -3.4078065     -4.4565809      1.4877949      22             22             22             1986.5152    
    181000   1.0060803     -0.27691479     10648         -2.9460584     -4.4549553      0             -4.4549553      0              0              0              0             -3.3827569     -4.4549553      1.5088969      22             22             22             1986.7196    
    182000   0.99675392    -0.17148151     10648         -2.9515285     -4.446438       0             -4.446438       0              0              0              0             -3.2219573     -4.446438       1.4949094      22             22             22             1986.9236    
    183000   0.98495462    -0.29228049     10648         -2.9722326     -4.4494457      0             -4.4494457      0              0              0              0             -3.4331631     -4.4494457      1.4772131      22             22             22             1987.1282    
    184000   0.9854023     -0.18348344     10648         -2.9519307     -4.4298152      0             -4.4298152      0              0              0              0             -3.2412867     -4.4298152      1.4778845      22             22             22             1987.3308    
    185000   1.0070454     -0.21054466     10648         -2.9401154     -4.4504597      0             -4.4504597      0              0              0              0             -3.2721473     -4.4504597      1.5103444      22             22             22             1987.535     
    186000   1.0148048     -0.26270908     10648         -2.9260296     -4.4480114      0             -4.4480114      0              0              0              0             -3.3403256     -4.4480114      1.5219818      22             22             22             1987.7342    
    187000   1.0141935     -0.17914151     10648         -2.9164066     -4.4374715      0             -4.4374715      0              0              0              0             -3.1989153     -4.4374715      1.5210649      22             22             22             1987.9534    
    188000   1.0049192     -0.23834588     10648         -2.9406956     -4.4478512      0             -4.4478512      0              0              0              0             -3.3165705     -4.4478512      1.5071555      22             22             22             1988.1562    
    189000   0.98418676    -0.25939565     10648         -2.970933      -4.4469945      0             -4.4469945      0              0              0              0             -3.3800036     -4.4469945      1.4760615      22             22             22             1988.3598    
    190000   1.0083725     -0.26949234     10648         -2.941048      -4.4533827      0             -4.4533827      0              0              0              0             -3.3660413     -4.4533827      1.5123347      22             22             22             1988.5617    
    191000   1.004748      -0.21045425     10648         -2.9350715     -4.4419704      0             -4.4419704      0              0              0              0             -3.2669609     -4.4419704      1.5068988      22             22             22             1988.7652    
    192000   1.0079766     -0.28376621     10648         -2.9540396     -4.4657805      0             -4.4657805      0              0              0              0             -3.4015429     -4.4657805      1.5117409      22             22             22             1988.9688    
    193000   1.001033      -0.23811877     10648         -2.9497083     -4.4510353      0             -4.4510353      0              0              0              0             -3.3252249     -4.4510353      1.5013271      22             22             22             1989.1707    
    194000   0.98290297    -0.23116182     10648         -2.9821405     -4.4562766      0             -4.4562766      0              0              0              0             -3.346686      -4.4562766      1.4741361      22             22             22             1989.3731    
    195000   0.98572872    -0.22459007     10648         -2.9731908     -4.4515649      0             -4.4515649      0              0              0              0             -3.3273725     -4.4515649      1.4783741      22             22             22             1989.5751    
    196000   1.0001941     -0.2725333      10648         -2.958261      -4.45833        0             -4.45833        0              0              0              0             -3.3880499     -4.45833        1.500069       22             22             22             1989.7772    
    197000   0.98796519    -0.25404156     10648         -2.9678265     -4.4495548      0             -4.4495548      0              0              0              0             -3.3684537     -4.4495548      1.4817283      22             22             22             1989.9792    
    198000   0.99345784    -0.23291339     10648         -2.9508659     -4.440832       0             -4.440832       0              0              0              0             -3.3181736     -4.440832       1.4899661      22             22             22             1990.1815    
    199000   0.98932504    -0.24336359     10648         -2.9704123     -4.4541801      0             -4.4541801      0              0              0              0             -3.3542001     -4.4541801      1.4837678      22             22             22             1990.3828    
    200000   0.98586709    -0.27088657     10648         -2.9705182     -4.4490999      0             -4.4490999      0              0              0              0             -3.3977102     -4.4490999      1.4785816      22             22             22             1990.5832    
    201000   1.0062641     -0.2379608      10648         -2.9407565     -4.4499291      0             -4.4499291      0              0              0              0             -3.3160241     -4.4499291      1.5091725      22             22             22             1990.7889    
    202000   1.0024287     -0.28944665     10648         -2.9570319     -4.4604522      0             -4.4604522      0              0              0              0             -3.4134933     -4.4604522      1.5034204      22             22             22             1990.9913    
    203000   0.99009402    -0.20338798     10648         -2.9550155     -4.4399366      0             -4.4399366      0              0              0              0             -3.2757613     -4.4399366      1.4849211      22             22             22             1991.1957    
    204000   0.99648295    -0.27008871     10648         -2.9699045     -4.4644075      0             -4.4644075      0              0              0              0             -3.3958382     -4.4644075      1.494503       22             22             22             1991.3957    
    205000   1.0007371     -0.28109601     10648         -2.949478      -4.4503614      0             -4.4503614      0              0              0              0             -3.3927705     -4.4503614      1.5008834      22             22             22             1991.5974    
    206000   1.0049908     -0.19542161     10648         -2.9346316     -4.4418945      0             -4.4418945      0              0              0              0             -3.2428143     -4.4418945      1.5072629      22             22             22             1991.8002    
    207000   0.9927466     -0.18576161     10648         -2.9497127     -4.4386121      0             -4.4386121      0              0              0              0             -3.2426614     -4.4386121      1.4888993      22             22             22             1992.003     
    208000   0.98933158    -0.15977956     10648         -2.9391271     -4.4229046      0             -4.4229046      0              0              0              0             -3.1911017     -4.4229046      1.4837776      22             22             22             1992.2085    
    209000   1.0134276     -0.15329109     10648         -2.9193432     -4.4392596      0             -4.4392596      0              0              0              0             -3.1610855     -4.4392596      1.5199163      22             22             22             1992.4084    
    210000   1.0124142     -0.26894729     10648         -2.9410346     -4.4594311      0             -4.4594311      0              0              0              0             -3.3651683     -4.4594311      1.5183965      22             22             22             1992.6139    
    211000   1.0079954     -0.29338948     10648         -2.9462471     -4.4580163      0             -4.4580163      0              0              0              0             -3.4089265     -4.4580163      1.5117692      22             22             22             1992.8211    
    212000   1.023499      -0.20330899     10648         -2.9256765     -4.4606977      0             -4.4606977      0              0              0              0             -3.2462977     -4.4606977      1.5350212      22             22             22             1993.0229    
    213000   1.0007702     -0.28187015     10648         -2.9559373     -4.4568702      0             -4.4568702      0              0              0              0             -3.4004505     -4.4568702      1.5009329      22             22             22             1993.2232    
    214000   0.99555055    -0.19631812     10648         -2.9501945     -4.4432992      0             -4.4432992      0              0              0              0             -3.259791      -4.4432992      1.4931047      22             22             22             1993.4241    
    215000   1.0064396     -0.19459913     10648         -2.9248851     -4.4343209      0             -4.4343209      0              0              0              0             -3.2317707     -4.4343209      1.5094358      22             22             22             1993.6283    
    216000   1.005739      -0.2850936      10648         -2.9548113     -4.4631964      0             -4.4631964      0              0              0              0             -3.4044079     -4.4631964      1.5083851      22             22             22             1993.8325    
    217000   0.99076364    -0.19952803     10648         -2.9552464     -4.4411717      0             -4.4411717      0              0              0              0             -3.2699049     -4.4411717      1.4859254      22             22             22             1994.0348    
    218000   0.99244406    -0.24787497     10648         -2.9597594     -4.448205       0             -4.448205       0              0              0              0             -3.3506617     -4.448205       1.4884456      22             22             22             1994.2344    
    219000   0.9822598     -0.23608551     10648         -2.9739157     -4.4470872      0             -4.4470872      0              0              0              0             -3.3462259     -4.4470872      1.4731715      22             22             22             1994.4395    
    220000   1.0043853     -0.24012709     10648         -2.939777      -4.4461318      0             -4.4461318      0              0              0              0             -3.3184608     -4.4461318      1.5063548      22             22             22             1994.6439    
    221000   0.98922605    -0.25788418     10648         -2.9638185     -4.4474378      0             -4.4474378      0              0              0              0             -3.3705056     -4.4474378      1.4836193      22             22             22             1994.8524    
    222000   1.0000776     -0.22508191     10648         -2.9439921     -4.4438863      0             -4.4438863      0              0              0              0             -3.2989494     -4.4438863      1.4998943      22             22             22             1995.0534    
    223000   1.0114582     -0.2015415      10648         -2.9195616     -4.4365242      0             -4.4365242      0              0              0              0             -3.2373954     -4.4365242      1.5169626      22             22             22             1995.2542    
    224000   0.99137218    -0.17611436     10648         -2.9532488     -4.4400868      0             -4.4400868      0              0              0              0             -3.2309836     -4.4400868      1.486838       22             22             22             1995.4571    
    225000   0.97658427    -0.21374452     10648         -2.9766392     -4.4412987      0             -4.4412987      0              0              0              0             -3.3137174     -4.4412987      1.4646594      22             22             22             1995.6623    
    226000   0.99382451    -0.2469027      10648         -2.9594658     -4.4499818      0             -4.4499818      0              0              0              0             -3.3488349     -4.4499818      1.490516       22             22             22             1995.8649    
    227000   0.99400126    -0.22784718     10648         -2.9725122     -4.4632932      0             -4.4632932      0              0              0              0             -3.3318304     -4.4632932      1.4907811      22             22             22             1996.0651    
    228000   0.98813142    -0.22168949     10648         -2.9522931     -4.4342707      0             -4.4342707      0              0              0              0             -3.3019006     -4.4342707      1.4819776      22             22             22             1996.2674    
    229000   0.99337407    -0.22417138     10648         -2.954035      -4.4438754      0             -4.4438754      0              0              0              0             -3.3075564     -4.4438754      1.4898404      22             22             22             1996.47      
    230000   0.99442381    -0.2086374      10648         -2.9515309     -4.4429457      0             -4.4429457      0              0              0              0             -3.280555      -4.4429457      1.4914148      22             22             22             1996.6744    
    231000   1.0085278     -0.18205406     10648         -2.9277541     -4.4403218      0             -4.4403218      0              0              0              0             -3.2148559     -4.4403218      1.5125677      22             22             22             1996.8819    
    232000   0.9846679     -0.24270116     10648         -2.9711801     -4.4479632      0             -4.4479632      0              0              0              0             -3.3539232     -4.4479632      1.4767831      22             22             22             1997.0826    
    233000   0.99663538    -0.2169366      10648         -2.9531737     -4.4479054      0             -4.4479054      0              0              0              0             -3.2952858     -4.4479054      1.4947317      22             22             22             1997.2858    
    234000   1.0035152     -0.21269366     10648         -2.9400557     -4.4451056      0             -4.4451056      0              0              0              0             -3.2754767     -4.4451056      1.5050498      22             22             22             1997.4889    
    235000   1.0016736     -0.17844539     10648         -2.9357624     -4.4380503      0             -4.4380503      0              0              0              0             -3.2171733     -4.4380503      1.5022879      22             22             22             1997.6919    
    236000   1.0096236     -0.22418764     10648         -2.9428354     -4.4570465      0             -4.4570465      0              0              0              0             -3.2963825     -4.4570465      1.5142111      22             22             22             1997.8925    
    237000   1.0121011     -0.21540289     10648         -2.9267625     -4.4446892      0             -4.4446892      0              0              0              0             -3.2664559     -4.4446892      1.5179267      22             22             22             1998.0938    
    238000   1.0118571     -0.23714947     10648         -2.9254543     -4.4430152      0             -4.4430152      0              0              0              0             -3.2994424     -4.4430152      1.5175609      22             22             22             1998.2965    
    239000   1.0142302     -0.25262693     10648         -2.9352114     -4.4563314      0             -4.4563314      0              0              0              0             -3.3336077     -4.4563314      1.52112        22             22             22             1998.4988    
    240000   1.017368      -0.27032827     10648         -2.9371673     -4.4629933      0             -4.4629933      0              0              0              0             -3.3634788     -4.4629933      1.525826       22             22             22             1998.7014    
    241000   1.0029316     -0.16346841     10648         -2.9291294     -4.4333039      0             -4.4333039      0              0              0              0             -3.1869214     -4.4333039      1.5041745      22             22             22             1998.9049    
    242000   1.0117484     -0.20636149     10648         -2.9348646     -4.4522624      0             -4.4522624      0              0              0              0             -3.2602996     -4.4522624      1.5173978      22             22             22             1999.1073    
    243000   1.0124249     -0.20014011     10648         -2.9221159     -4.4405284      0             -4.4405284      0              0              0              0             -3.2377397     -4.4405284      1.5184124      22             22             22             1999.3093    
    244000   1.0150678     -0.23008736     10648         -2.9282186     -4.4505948      0             -4.4505948      0              0              0              0             -3.2910696     -4.4505948      1.5223762      22             22             22             1999.5109    
    245000   1.015423      -0.16555833     10648         -2.9128365     -4.4357454      0             -4.4357454      0              0              0              0             -3.1739244     -4.4357454      1.5229089      22             22             22             1999.7133    
    246000   0.99671279    -0.16425491     10648         -2.9446514     -4.4394992      0             -4.4394992      0              0              0              0             -3.2036838     -4.4394992      1.4948478      22             22             22             1999.916     
    247000   0.98245393    -0.21214754     10648         -2.960961      -4.4344237      0             -4.4344237      0              0              0              0             -3.2955207     -4.4344237      1.4734626      22             22             22             2000.121     
    248000   0.99086414    -0.25254313     10648         -2.976591      -4.4626671      0             -4.4626671      0              0              0              0             -3.3748551     -4.4626671      1.4860761      22             22             22             2000.3267    
    249000   0.99592536    -0.3225463      10648         -2.9769983     -4.4706651      0             -4.4706651      0              0              0              0             -3.4856584     -4.4706651      1.4936668      22             22             22             2000.5286    
    250000   1.0010301     -0.25574373     10648         -2.9573085     -4.4586312      0             -4.4586312      0              0              0              0             -3.36062       -4.4586312      1.5013228      22             22             22             2000.7275    
    251000   0.99437132    -0.21796803     10648         -2.9391366     -4.4304727      0             -4.4304727      0              0              0              0             -3.2828753     -4.4304727      1.4913361      22             22             22             2000.9353    
    252000   0.996237      -0.2081593      10648         -2.9576065     -4.4517407      0             -4.4517407      0              0              0              0             -3.2858767     -4.4517407      1.4941342      22             22             22             2001.1377    
    253000   1.0127279     -0.24862078     10648         -2.9307053     -4.4495722      0             -4.4495722      0              0              0              0             -3.3227839     -4.4495722      1.5188669      22             22             22             2001.3399    
    254000   1.0024477     -0.21726514     10648         -2.9373881     -4.440837       0             -4.440837       0              0              0              0             -3.2800183     -4.440837       1.5034488      22             22             22             2001.5408    
    255000   1.0049949     -0.25047455     10648         -2.952138      -4.4594071      0             -4.4594071      0              0              0              0             -3.3471399     -4.4594071      1.5072691      22             22             22             2001.7411    
    256000   1.0160814     -0.23849995     10648         -2.9188494     -4.4427459      0             -4.4427459      0              0              0              0             -3.2949672     -4.4427459      1.5238964      22             22             22             2001.9429    
    257000   1.0212908     -0.23618728     10648         -2.9302112     -4.4619205      0             -4.4619205      0              0              0              0             -3.3026819     -4.4619205      1.5317093      22             22             22             2002.1473    
    258000   1.0005866     -0.25418661     10648         -2.948242      -4.4488996      0             -4.4488996      0              0              0              0             -3.3490979     -4.4488996      1.5006576      22             22             22             2002.3503    
    259000   0.99805694    -0.28184256     10648         -2.9645403     -4.461404       0             -4.461404       0              0              0              0             -3.40901       -4.461404       1.4968637      22             22             22             2002.5513    
    260000   1.0122789     -0.24731006     10648         -2.939953      -4.4581464      0             -4.4581464      0              0              0              0             -3.3299645     -4.4581464      1.5181934      22             22             22             2002.7525    
    261000   1.0095846     -0.16822196     10648         -2.9293302     -4.4434829      0             -4.4434829      0              0              0              0             -3.1946187     -4.4434829      1.5141526      22             22             22             2002.9594    
    262000   1.005771      -0.14151271     10648         -2.9155805     -4.4240136      0             -4.4240136      0              0              0              0             -3.1387481     -4.4240136      1.5084331      22             22             22             2003.1606    
    263000   1.0158043     -0.22636139     10648         -2.9292335     -4.4527143      0             -4.4527143      0              0              0              0             -3.2862086     -4.4527143      1.5234808      22             22             22             2003.3619    
    264000   0.99927149    -0.16464214     10648         -2.9466784     -4.4453637      0             -4.4453637      0              0              0              0             -3.2063214     -4.4453637      1.4986852      22             22             22             2003.5647    
    265000   1.0094411     -0.28370646     10648         -2.9419563     -4.4558938      0             -4.4558938      0              0              0              0             -3.3893654     -4.4558938      1.5139374      22             22             22             2003.7691    
    266000   1.0096278     -0.22133158     10648         -2.9322921     -4.4465095      0             -4.4465095      0              0              0              0             -3.2813351     -4.4465095      1.5142175      22             22             22             2003.9718    
    267000   0.99800101    -0.20359759     10648         -2.9430614     -4.4398412      0             -4.4398412      0              0              0              0             -3.2641377     -4.4398412      1.4967798      22             22             22             2004.1752    
    268000   0.99271633    -0.23408299     10648         -2.9691965     -4.4580505      0             -4.4580505      0              0              0              0             -3.3383487     -4.4580505      1.488854       22             22             22             2004.3759    
    269000   1.0000944     -0.21662431     10648         -2.9496083     -4.4495277      0             -4.4495277      0              0              0              0             -3.2912279     -4.4495277      1.4999195      22             22             22             2004.5779    
    270000   0.99832225    -0.20793876     10648         -2.9457505     -4.4430121      0             -4.4430121      0              0              0              0             -3.2736729     -4.4430121      1.4972616      22             22             22             2004.782     
    271000   1.0061044     -0.20733953     10648         -2.9204465     -4.4293795      0             -4.4293795      0              0              0              0             -3.2474239     -4.4293795      1.5089331      22             22             22             2004.9883    
    272000   0.99986257    -0.17991408     10648         -2.9272952     -4.426867       0             -4.426867       0              0              0              0             -3.2110223     -4.426867       1.4995717      22             22             22             2005.1903    
    273000   1.0024794     -0.26527009     10648         -2.9438314     -4.4473278      0             -4.4473278      0              0              0              0             -3.3621661     -4.4473278      1.5034964      22             22             22             2005.3897    
    274000   1.0281541     -0.23264883     10648         -2.9198897     -4.4618925      0             -4.4618925      0              0              0              0             -3.2867802     -4.4618925      1.5420028      22             22             22             2005.5914    
    275000   1.0039326     -0.1815692      10648         -2.9242103     -4.4298862      0             -4.4298862      0              0              0              0             -3.2105475     -4.4298862      1.5056759      22             22             22             2005.8104    
    276000   1.0025086     -0.25699578     10648         -2.9531567     -4.4566969      0             -4.4566969      0              0              0              0             -3.3584427     -4.4566969      1.5035402      22             22             22             2006.013     
    277000   0.99558036    -0.18294783     10648         -2.9468165     -4.4399659      0             -4.4399659      0              0              0              0             -3.2353279     -4.4399659      1.4931494      22             22             22             2006.213     
[...]
    935000   1.0053105     -0.18948225     10648         -2.9266763     -4.4344187      0             -4.4344187      0              0              0              0             -3.2254925     -4.4344187      1.5077424      22             22             22             2139.5652    
    936000   0.99651373    -0.26413187     10648         -2.9525559     -4.4471051      0             -4.4471051      0              0              0              0             -3.3690956     -4.4471051      1.4945492      22             22             22             2139.7684    
    937000   0.9942171     -0.20858643     10648         -2.9602622     -4.451367       0             -4.451367       0              0              0              0             -3.289206      -4.451367       1.4911048      22             22             22             2139.9702    
    938000   0.98748316    -0.23255892     10648         -2.9705792     -4.4515846      0             -4.4515846      0              0              0              0             -3.337328      -4.4515846      1.4810054      22             22             22             2140.17      
    939000   0.9973656     -0.25377023     10648         -2.946846      -4.4426728      0             -4.4426728      0              0              0              0             -3.3470453     -4.4426728      1.4958268      22             22             22             2140.3749    
    940000   0.98973419    -0.20301063     10648         -2.955571      -4.4399524      0             -4.4399524      0              0              0              0             -3.2757217     -4.4399524      1.4843814      22             22             22             2140.5769    
    941000   0.98639263    -0.3223439      10648         -2.9777015     -4.4570713      0             -4.4570713      0              0              0              0             -3.4860424     -4.4570713      1.4793698      22             22             22             2140.7838    
    942000   1.0089862     -0.173548       10648         -2.9268655     -4.4401206      0             -4.4401206      0              0              0              0             -3.2005531     -4.4401206      1.5132552      22             22             22             2141.0022    
    943000   1.0047154     -0.19399356     10648         -2.9383311     -4.445181       0             -4.445181       0              0              0              0             -3.2442617     -4.445181       1.5068499      22             22             22             2141.2034    
    944000   1.0055736     -0.22824689     10648         -2.9349984     -4.4431353      0             -4.4431353      0              0              0              0             -3.294947      -4.4431353      1.5081369      22             22             22             2141.408     
    945000   0.99025822    -0.25397903     10648         -2.9680617     -4.453229       0             -4.453229       0              0              0              0             -3.3685902     -4.453229       1.4851673      22             22             22             2141.6089    
    946000   0.98661782    -0.26764738     10648         -2.9688666     -4.4485741      0             -4.4485741      0              0              0              0             -3.3909503     -4.4485741      1.4797076      22             22             22             2141.8104    
    947000   0.99004085    -0.17729242     10648         -2.9569104     -4.4417517      0             -4.4417517      0              0              0              0             -3.2365031     -4.4417517      1.4848413      22             22             22             2142.0112    
    948000   1.0011242     -0.18283078     10648         -2.9456785     -4.4471424      0             -4.4471424      0              0              0              0             -3.2340052     -4.4471424      1.5014639      22             22             22             2142.2146    
    949000   1.022825      -0.2886261      10648         -2.9382847     -4.472295       0             -4.472295       0              0              0              0             -3.3934521     -4.472295       1.5340103      22             22             22             2142.4174    
    950000   1.0105656     -0.23697165     10648         -2.9357718     -4.4513957      0             -4.4513957      0              0              0              0             -3.3094795     -4.4513957      1.5156239      22             22             22             2142.6218    
    951000   1.0034897     -0.20972674     10648         -2.9434135     -4.448425       0             -4.448425       0              0              0              0             -3.2741555     -4.448425       1.5050116      22             22             22             2142.8255    
    952000   1.009005      -0.21939169     10648         -2.9231169     -4.4364002      0             -4.4364002      0              0              0              0             -3.2691007     -4.4364002      1.5132833      22             22             22             2143.0251    
    953000   1.0042139     -0.19899707     10648         -2.9384119     -4.4445096      0             -4.4445096      0              0              0              0             -3.2522331     -4.4445096      1.5060978      22             22             22             2143.2275    
    954000   1.0055548     -0.20759854     10648         -2.9425335     -4.4506423      0             -4.4506423      0              0              0              0             -3.2699194     -4.4506423      1.5081088      22             22             22             2143.4309    
    955000   1.008212      -0.24117333     10648         -2.9438532     -4.4559473      0             -4.4559473      0              0              0              0             -3.324187      -4.4559473      1.5120941      22             22             22             2143.6376    
    956000   0.99908158    -0.18893345     10648         -2.937517      -4.4359174      0             -4.4359174      0              0              0              0             -3.2354677     -4.4359174      1.4984004      22             22             22             2143.8369    
    957000   1.0068199     -0.25371963     10648         -2.9440697     -4.4540759      0             -4.4540759      0              0              0              0             -3.3441892     -4.4540759      1.5100062      22             22             22             2144.0388    
    958000   1.0012956     -0.21811979     10648         -2.9418081     -4.4435291      0             -4.4435291      0              0              0              0             -3.2857861     -4.4435291      1.501721       22             22             22             2144.2425    
    959000   1.0003782     -0.25778628     10648         -2.9419218     -4.4422669      0             -4.4422669      0              0              0              0             -3.3484544     -4.4422669      1.5003451      22             22             22             2144.4452    
    960000   0.9872075     -0.25564558     10648         -2.9749156     -4.4555075      0             -4.4555075      0              0              0              0             -3.3780723     -4.4555075      1.4805919      22             22             22             2144.6488    
    961000   0.99075838    -0.35705471     10648         -2.9983814     -4.4842989      0             -4.4842989      0              0              0              0             -3.5614618     -4.4842989      1.4859175      22             22             22             2144.8517    
    962000   1.0074883     -0.25981293     10648         -2.9369316     -4.4479402      0             -4.4479402      0              0              0              0             -3.3466603     -4.4479402      1.5110086      22             22             22             2145.0527    
    963000   1.0050753     -0.25522006     10648         -2.9363497     -4.4437394      0             -4.4437394      0              0              0              0             -3.3388354     -4.4437394      1.5073897      22             22             22             2145.2562    
    964000   1.008375      -0.20216633     10648         -2.9345375     -4.446876       0             -4.446876       0              0              0              0             -3.2533566     -4.446876       1.5123385      22             22             22             2145.4569    
    965000   1.0165385     -0.21266482     10648         -2.9089814     -4.4335633      0             -4.4335633      0              0              0              0             -3.2443568     -4.4335633      1.5245819      22             22             22             2145.6592    
    966000   1.0108495     -0.25342296     10648         -2.9410634     -4.4571132      0             -4.4571132      0              0              0              0             -3.340715      -4.4571132      1.5160497      22             22             22             2145.8583    
    967000   1.0018908     -0.2205047      10648         -2.9430067     -4.4456204      0             -4.4456204      0              0              0              0             -3.2907457     -4.4456204      1.5026137      22             22             22             2146.0588    
    968000   1.0044405     -0.24523349     10648         -2.9567333     -4.4631709      0             -4.4631709      0              0              0              0             -3.34347       -4.4631709      1.5064376      22             22             22             2146.2628    
    969000   0.98547052    -0.20315438     10648         -2.9714642     -4.4494511      0             -4.4494511      0              0              0              0             -3.2918416     -4.4494511      1.4779868      22             22             22             2146.4643    
    970000   1.0018137     -0.30037777     10648         -2.9602061     -4.4627041      0             -4.4627041      0              0              0              0             -3.4339062     -4.4627041      1.502498       22             22             22             2146.6635    
    971000   1.0030088     -0.16160917     10648         -2.9294346     -4.433725       0             -4.433725       0              0              0              0             -3.1842945     -4.433725       1.5042904      22             22             22             2146.8697    
    972000   0.99442795    -0.18005139     10648         -2.9525884     -4.4440095      0             -4.4440095      0              0              0              0             -3.236532      -4.4440095      1.491421       22             22             22             2147.0729    
    973000   0.99617349    -0.21885828     10648         -2.9578499     -4.4518889      0             -4.4518889      0              0              0              0             -3.3029926     -4.4518889      1.4940389      22             22             22             2147.2752    
    974000   0.99943365    -0.20115543     10648         -2.9421068     -4.4410352      0             -4.4410352      0              0              0              0             -3.2593318     -4.4410352      1.4989284      22             22             22             2147.4785    
    975000   1.0063308     -0.24023708     10648         -2.9259493     -4.435222       0             -4.435222       0              0              0              0             -3.3048066     -4.435222       1.5092726      22             22             22             2147.6793    
    976000   1.0081335     -0.23662843     10648         -2.9480184     -4.4599948      0             -4.4599948      0              0              0              0             -3.3211848     -4.4599948      1.5119763      22             22             22             2147.8804    
    977000   1.0058074     -0.20823611     10648         -2.9311681     -4.4396558      0             -4.4396558      0              0              0              0             -3.2595594     -4.4396558      1.5084877      22             22             22             2148.0815    
    978000   1.0067046     -0.22328653     10648         -2.9213315     -4.4311647      0             -4.4311647      0              0              0              0             -3.2734575     -4.4311647      1.5098332      22             22             22             2148.2834    
    979000   0.99640505    -0.22278031     10648         -2.957655      -4.4520412      0             -4.4520412      0              0              0              0             -3.3089827     -4.4520412      1.4943862      22             22             22             2148.4831    
    980000   1.0057358     -0.33106915     10648         -2.9528329     -4.4612131      0             -4.4612131      0              0              0              0             -3.4749337     -4.4612131      1.5083802      22             22             22             2148.685     
    981000   0.9931263     -0.28155741     10648         -2.9636002     -4.453069       0             -4.453069       0              0              0              0             -3.4076202     -4.453069       1.4894688      22             22             22             2148.8912    
    982000   0.9910752     -0.23375614     10648         -2.9569206     -4.4433132      0             -4.4433132      0              0              0              0             -3.3255573     -4.4433132      1.4863926      22             22             22             2149.0948    
    983000   1.0012386     -0.19235631     10648         -2.934276      -4.4359115      0             -4.4359115      0              0              0              0             -3.2376247     -4.4359115      1.5016355      22             22             22             2149.2984    
    984000   1.0007213     -0.2429228      10648         -2.9519961     -4.4528557      0             -4.4528557      0              0              0              0             -3.3350888     -4.4528557      1.5008596      22             22             22             2149.4984    
    985000   1.0029507     -0.29799057     10648         -2.9512824     -4.4554856      0             -4.4554856      0              0              0              0             -3.4212178     -4.4554856      1.5042033      22             22             22             2149.7023    
    986000   0.99099464    -0.21599753     10648         -2.9556652     -4.441937       0             -4.441937       0              0              0              0             -3.2962964     -4.441937       1.4862718      22             22             22             2149.9057    
    987000   1.0114179     -0.26541431     10648         -2.9535971     -4.4704994      0             -4.4704994      0              0              0              0             -3.3721593     -4.4704994      1.5169022      22             22             22             2150.1074    
    988000   1.0086118     -0.18241099     10648         -2.9170937     -4.4297873      0             -4.4297873      0              0              0              0             -3.2047584     -4.4297873      1.5126936      22             22             22             2150.3084    
    989000   1.0090899     -0.19893334     10648         -2.920527      -4.4339376      0             -4.4339376      0              0              0              0             -3.2342477     -4.4339376      1.5134107      22             22             22             2150.5075    
    990000   1.0074278     -0.22889161     10648         -2.9316003     -4.4425183      0             -4.4425183      0              0              0              0             -3.2925657     -4.4425183      1.510918       22             22             22             2150.7098    
    991000   1.0112706     -0.2327556      10648         -2.9203348     -4.4370161      0             -4.4370161      0              0              0              0             -3.2873937     -4.4370161      1.5166813      22             22             22             2150.9148    
    992000   0.99788448    -0.17915195     10648         -2.9506749     -4.4472799      0             -4.4472799      0              0              0              0             -3.2332        -4.4472799      1.496605       22             22             22             2151.117     
    993000   0.98101779    -0.25031031     10648         -2.9779205     -4.4492292      0             -4.4492292      0              0              0              0             -3.3726634     -4.4492292      1.4713087      22             22             22             2151.3163    
    994000   0.99666666    -0.17205237     10648         -2.951747      -4.4465256      0             -4.4465256      0              0              0              0             -3.223076      -4.4465256      1.4947786      22             22             22             2151.5183    
    995000   0.98556726    -0.27290577     10648         -2.9737872     -4.4519192      0             -4.4519192      0              0              0              0             -3.4041635     -4.4519192      1.4781319      22             22             22             2151.7215    
    996000   0.99276252    -0.24425873     10648         -2.9713917     -4.4603149      0             -4.4603149      0              0              0              0             -3.3565912     -4.4603149      1.4889232      22             22             22             2151.9247    
    997000   0.98930335    -0.20145957     10648         -2.9658717     -4.4496069      0             -4.4496069      0              0              0              0             -3.2835763     -4.4496069      1.4837352      22             22             22             2152.1262    
    998000   0.98424233    -0.28083501     10648         -2.9772517     -4.4533966      0             -4.4533966      0              0              0              0             -3.4201325     -4.4533966      1.4761448      22             22             22             2152.3258    
    999000   0.99331426    -0.23340884     10648         -2.9541067     -4.4438574      0             -4.4438574      0              0              0              0             -3.3221958     -4.4438574      1.4897507      22             22             22             2152.5426    
   1000000   0.9957228     -0.26855755     10648         -2.9556399     -4.4490029      0             -4.4490029      0              0              0              0             -3.379159      -4.4490029      1.493363       22             22             22             2152.7445    
Loop time of 2152.75 on 128 procs for 1000000 steps with 6752 atoms

Performance: 120404.026 tau/day, 464.522 timesteps/s, 3.136 Matom-step/s
92.5% CPU use with 32 MPI tasks x 4 OpenMP threads

MPI task timing breakdown:
Section |  min time  |  avg time  |  max time  |%varavg| %total
---------------------------------------------------------------
Pair    | 58.209     | 59.712     | 61.396     |  12.5 |  2.77
Bond    | 0.038367   | 0.040119   | 0.046378   |   0.9 |  0.00
Neigh   | 22.649     | 22.932     | 23.454     |   3.7 |  1.07
Comm    | 881.19     | 1013.8     | 1174.3     | 192.7 | 47.10
Output  | 14.552     | 16.172     | 17.226     |  13.5 |  0.75
Modify  | 356.93     | 518.7      | 648.88     | 288.9 | 24.09
Other   |            | 521.4      |            |       | 24.22

Nlocal:            211 ave         227 max         192 min
Histogram: 2 0 3 2 6 7 3 3 5 1
Nghost:        1085.59 ave        1108 max        1054 min
Histogram: 2 0 4 4 2 2 4 5 7 2
Neighs:        6043.53 ave        6715 max        5007 min
Histogram: 1 0 2 3 2 8 4 5 5 2

Total # of neighbors = 193393
Ave neighs/atom = 28.642328
Ave special neighs/atom = 0
Neighbor list builds = 87917
Dangerous builds = 0
System init for write_data ...
Generated 0 of 0 mixed pair_coeff terms from arithmetic mixing rule
Total wall time: 0:35:53
