LAMMPS (2 Aug 2023)
  using 4 OpenMP thread(s) per MPI task
Reading data file ...
  orthogonal box = (0 0 0) to (22 22 22)
  2 by 4 by 4 MPI processor grid
  reading atoms ...
  6752 atoms
Finding 1-2 1-3 1-4 neighbors ...
  special bond factors lj:    0        0        0       
  special bond factors coul:  0        0        0       
     0 = max # of 1-2 neighbors
     0 = max # of 1-3 neighbors
     0 = max # of 1-4 neighbors
     1 = max # of special neighbors
  special bonds CPU = 0.002 seconds
  read_data CPU = 0.032 seconds
Generated 0 of 0 mixed pair_coeff terms from arithmetic mixing rule
Neighbor list info ...
  update: every = 1 steps, delay = 0 steps, check = yes
  max neighbors/atom: 2000, page size: 100000
  master list distance cutoff = 2.8
  ghost atom cutoff = 2.8
  binsize = 1.4, bins = 16 16 16
  1 neighbor lists, perpetual/occasional/extra = 1 0 0
  (1) pair lj/cut, perpetual
      attributes: half, newton on
      pair build: half/bin/newton
      stencil: half/bin/3d
      bin: standard
Setting up Verlet run ...
  Unit style    : lj
  Current step  : 0
  Time step     : 0.003
Per MPI rank memory allocation (min/avg/max) = 8.72 | 8.742 | 8.763 Mbytes
   Step          Temp          Press          Volume         TotEng         E_pair         E_mol          E_vdwl         E_coul         E_long         E_bond        E_angle        Enthalpy        PotEng         KinEng           Lx             Ly             Lz            CPU      
         0   0              10.131801      10648         -4.0947227     -4.0947227      0             -4.0947227      0              0              0              0              11.883272     -4.0947227      0              22             22             22             0            
      1000   0.98497145     0.10017232     10648         -3.5995564     -5.0767947      0             -5.0767947      0              0              0              0             -3.4415832     -5.0767947      1.4772384      22             22             22             0.26890421   
      2000   0.98757133     0.091555544    10648         -3.2696795     -4.7508171      0             -4.7508171      0              0              0              0             -3.1252951     -4.7508171      1.4811376      22             22             22             0.48772039   
      3000   0.99321387    -0.18595183     10648         -3.0141058     -4.503706       0             -4.503706       0              0              0              0             -3.3073545     -4.503706       1.4896002      22             22             22             0.68119919   
      4000   1.0049521     -0.23027993     10648         -2.9643019     -4.4715068      0             -4.4715068      0              0              0              0             -3.3274567     -4.4715068      1.5072049      22             22             22             0.86163013   
      5000   1.0060552     -0.22016166     10648         -2.9460943     -4.4549536      0             -4.4549536      0              0              0              0             -3.2932924     -4.4549536      1.5088593      22             22             22             1.0358285    
      6000   1.0010777     -0.22923774     10648         -2.9432618     -4.4446559      0             -4.4446559      0              0              0              0             -3.3047729     -4.4446559      1.5013941      22             22             22             1.2133905    
      7000   1.0034235     -0.20043383     10648         -2.9293708     -4.434283       0             -4.434283       0              0              0              0             -3.2454578     -4.434283       1.5049123      22             22             22             1.3915008    
      8000   1.0224514     -0.20725898     10648         -2.9125746     -4.4460246      0             -4.4460246      0              0              0              0             -3.239425      -4.4460246      1.5334499      22             22             22             1.5694159    
      9000   1.0071537     -0.19661926     10648         -2.9328375     -4.4433444      0             -4.4433444      0              0              0              0             -3.2429089     -4.4433444      1.5105068      22             22             22             1.7459804    
     10000   0.99132996    -0.22726774     10648         -2.9640482     -4.4508229      0             -4.4508229      0              0              0              0             -3.3224526     -4.4508229      1.4867747      22             22             22             1.9230516    
     11000   1.0117837     -0.18773481     10648         -2.9276105     -4.4450614      0             -4.4450614      0              0              0              0             -3.223671      -4.4450614      1.5174508      22             22             22             2.1064559    
     12000   0.99882151    -0.25725638     10648         -2.9366361     -4.4346464      0             -4.4346464      0              0              0              0             -3.342333      -4.4346464      1.4980104      22             22             22             2.2824594    
     13000   1.0049978     -0.22674576     10648         -2.938257      -4.4455304      0             -4.4455304      0              0              0              0             -3.2958383     -4.4455304      1.5072734      22             22             22             2.4566511    
     14000   1.0035711     -0.18823389     10648         -2.940939      -4.4460728      0             -4.4460728      0              0              0              0             -3.2377866     -4.4460728      1.5051338      22             22             22             2.6273071    
     15000   1.007655      -0.27888928     10648         -2.9417055     -4.4529641      0             -4.4529641      0              0              0              0             -3.3815179     -4.4529641      1.5112586      22             22             22             2.7966672    
     16000   1.0108935     -0.19557905     10648         -2.9251134     -4.4412291      0             -4.4412291      0              0              0              0             -3.2335444     -4.4412291      1.5161157      22             22             22             2.964652     
     17000   1.0105209     -0.29577188     10648         -2.9430557     -4.4586125      0             -4.4586125      0              0              0              0             -3.4094921     -4.4586125      1.5155569      22             22             22             3.1368745    
     18000   1.0233029     -0.26084091     10648         -2.9130248     -4.4477518      0             -4.4477518      0              0              0              0             -3.3243746     -4.4477518      1.534727       22             22             22             3.3117029    
     19000   0.99176127    -0.27295055     10648         -2.9668141     -4.4542356      0             -4.4542356      0              0              0              0             -3.397261      -4.4542356      1.4874216      22             22             22             3.4878575    
     20000   0.99428129    -0.26484341     10648         -2.9614585     -4.4526596      0             -4.4526596      0              0              0              0             -3.3791204     -4.4526596      1.4912011      22             22             22             3.6576708    
     21000   1.009524      -0.18908417     10648         -2.9378047     -4.4518664      0             -4.4518664      0              0              0              0             -3.2359931     -4.4518664      1.5140617      22             22             22             3.945489     
     22000   1.0157331     -0.23607531     10648         -2.9227306     -4.4461045      0             -4.4461045      0              0              0              0             -3.2950247     -4.4461045      1.523374       22             22             22             4.1162672    
     23000   1.0048745     -0.24138122     10648         -2.9393281     -4.4464166      0             -4.4464166      0              0              0              0             -3.3199897     -4.4464166      1.5070885      22             22             22             4.286621     
     24000   0.99811593    -0.28131431     10648         -2.9643612     -4.4613133      0             -4.4613133      0              0              0              0             -3.4079978     -4.4613133      1.4969522      22             22             22             4.4547355    
     25000   0.99600844    -0.2334832      10648         -2.9728935     -4.4666849      0             -4.4666849      0              0              0              0             -3.3410998     -4.4666849      1.4937914      22             22             22             4.6281003    
     26000   0.99470325    -0.23817246     10648         -2.9509731     -4.442807       0             -4.442807       0              0              0              0             -3.3265745     -4.442807       1.4918339      22             22             22             4.806176     
     27000   1.0060509     -0.26490318     10648         -2.9487503     -4.4576031      0             -4.4576031      0              0              0              0             -3.3665064     -4.4576031      1.5088528      22             22             22             4.9863653    
     28000   0.9962739     -0.21261145     10648         -2.9427095     -4.436899       0             -4.436899       0              0              0              0             -3.2780008     -4.436899       1.4941895      22             22             22             5.1719708    
     29000   1.0001669     -0.28821689     10648         -2.9423827     -4.4424108      0             -4.4424108      0              0              0              0             -3.3969048     -4.4424108      1.5000282      22             22             22             5.3542814    
     30000   1.0150515     -0.29059565     10648         -2.939663      -4.4620147      0             -4.4620147      0              0              0              0             -3.3979365     -4.4620147      1.5223517      22             22             22             5.536763     
     31000   1.0069643     -0.17458232     10648         -2.92391       -4.4341327      0             -4.4341327      0              0              0              0             -3.1992288     -4.4341327      1.5102227      22             22             22             5.8731115    
     32000   1.0082259     -0.23047344     10648         -2.9348269     -4.4469418      0             -4.4469418      0              0              0              0             -3.2982868     -4.4469418      1.5121149      22             22             22             6.0535766    
     33000   0.98005461    -0.22007938     10648         -2.9666589     -4.4365231      0             -4.4365231      0              0              0              0             -3.3137272     -4.4365231      1.4698642      22             22             22             6.2344402    
     34000   1.002399      -0.29388143     10648         -2.9669573     -4.4703332      0             -4.4703332      0              0              0              0             -3.4304125     -4.4703332      1.5033759      22             22             22             6.4184203    
     35000   0.99954032    -0.24477229     10648         -2.949738      -4.4488265      0             -4.4488265      0              0              0              0             -3.3357474     -4.4488265      1.4990884      22             22             22             6.6078209    
     36000   0.99873382    -0.19899773     10648         -2.9221868     -4.4200657      0             -4.4200657      0              0              0              0             -3.236009      -4.4200657      1.4978789      22             22             22             6.7978305    
     37000   1.0071596     -0.18662426     10648         -2.939208      -4.4497237      0             -4.4497237      0              0              0              0             -3.2335171     -4.4497237      1.5105157      22             22             22             6.9862483    
     38000   1.0175199     -0.24037168     10648         -2.9256647     -4.4517185      0             -4.4517185      0              0              0              0             -3.3047343     -4.4517185      1.5260538      22             22             22             7.1725794    
     39000   1.0045104     -0.29040007     10648         -2.9528032     -4.4593457      0             -4.4593457      0              0              0              0             -3.4107682     -4.4593457      1.5065425      22             22             22             7.3526577    
     40000   1.0015146     -0.26748332     10648         -2.9499445     -4.451994       0             -4.451994       0              0              0              0             -3.3717695     -4.451994       1.5020495      22             22             22             7.5573207    
     41000   0.99898574    -0.22414205     10648         -2.9456128     -4.4438694      0             -4.4438694      0              0              0              0             -3.299088      -4.4438694      1.4982567      22             22             22             7.8480896    
     42000   0.99228554    -0.26948494     10648         -2.9596831     -4.447891       0             -4.447891       0              0              0              0             -3.3846647     -4.447891       1.4882079      22             22             22             8.0477774    
     43000   0.97873568    -0.20577191     10648         -2.9714106     -4.4392966      0             -4.4392966      0              0              0              0             -3.2959158     -4.4392966      1.4678861      22             22             22             8.2388064    
     44000   0.99242819    -0.29655397     10648         -2.9571071     -4.4455289      0             -4.4455289      0              0              0              0             -3.4247769     -4.4455289      1.4884218      22             22             22             8.4040849    
     45000   0.99328956    -0.2873924      10648         -2.9638829     -4.4535966      0             -4.4535966      0              0              0              0             -3.4171048     -4.4535966      1.4897137      22             22             22             8.5737326    
     46000   0.98960799    -0.1940975      10648         -2.9599731     -4.4441653      0             -4.4441653      0              0              0              0             -3.2660676     -4.4441653      1.4841921      22             22             22             8.7369075    
     47000   0.99666166    -0.22813909     10648         -2.9464046     -4.4411757      0             -4.4411757      0              0              0              0             -3.3061832     -4.4411757      1.4947711      22             22             22             8.9062716    
     48000   0.9882179     -0.27363658     10648         -2.9697581     -4.4518654      0             -4.4518654      0              0              0              0             -3.4012869     -4.4518654      1.4821073      22             22             22             9.0796966    
     49000   0.9927071     -0.21225541     10648         -2.9507506     -4.4395907      0             -4.4395907      0              0              0              0             -3.2854804     -4.4395907      1.4888401      22             22             22             9.2496779    
     50000   0.99947759    -0.24405886     10648         -2.942399      -4.4413933      0             -4.4413933      0              0              0              0             -3.3272833     -4.4413933      1.4989944      22             22             22             9.4175744    
     51000   1.0090864     -0.25932707     10648         -2.9300671     -4.4434725      0             -4.4434725      0              0              0              0             -3.3390296     -4.4434725      1.5134054      22             22             22             9.622681     
     52000   1.0064168     -0.25129696     10648         -2.936597      -4.4459987      0             -4.4459987      0              0              0              0             -3.3328959     -4.4459987      1.5094016      22             22             22             9.7893416    
     53000   0.98944934    -0.25022716     10648         -2.9570443     -4.4409985      0             -4.4409985      0              0              0              0             -3.3516561     -4.4409985      1.4839542      22             22             22             9.9532456    
     54000   1.0038485     -0.19860458     10648         -2.9360715     -4.4416212      0             -4.4416212      0              0              0              0             -3.2492737     -4.4416212      1.5055498      22             22             22             10.117959    
     55000   1.0111654     -0.2893945      10648         -2.9413519     -4.4578754      0             -4.4578754      0              0              0              0             -3.3977311     -4.4578754      1.5165235      22             22             22             10.282897    
     56000   1.0217735     -0.23249749     10648         -2.9101466     -4.4425799      0             -4.4425799      0              0              0              0             -3.2767984     -4.4425799      1.5324333      22             22             22             10.445918    
     57000   0.99419418    -0.14525464     10648         -2.9267562     -4.4178266      0             -4.4178266      0              0              0              0             -3.1558249     -4.4178266      1.4910704      22             22             22             10.610313    
     58000   0.99916995    -0.21441862     10648         -2.9456157     -4.4441486      0             -4.4441486      0              0              0              0             -3.2837569     -4.4441486      1.4985329      22             22             22             10.77418     
     59000   1.0174254     -0.19616887     10648         -2.9186492     -4.4445613      0             -4.4445613      0              0              0              0             -3.2280103     -4.4445613      1.525912       22             22             22             10.937805    
     60000   0.98928899    -0.21452942     10648         -2.9711779     -4.4548916      0             -4.4548916      0              0              0              0             -3.3094938     -4.4548916      1.4837137      22             22             22             11.102978    
     61000   0.99676654    -0.17905311     10648         -2.9608182     -4.4557466      0             -4.4557466      0              0              0              0             -3.2431875     -4.4557466      1.4949284      22             22             22             11.287081    
     62000   0.98407408    -0.24500623     10648         -2.977893      -4.4537855      0             -4.4537855      0              0              0              0             -3.3642713     -4.4537855      1.4758925      22             22             22             11.451969    
     63000   1.0038311     -0.2612066      10648         -2.952466      -4.4579896      0             -4.4579896      0              0              0              0             -3.3643926     -4.4579896      1.5055236      22             22             22             11.615247    
     64000   0.99635714    -0.28455304     10648         -2.9597194     -4.4540337      0             -4.4540337      0              0              0              0             -3.4084635     -4.4540337      1.4943144      22             22             22             11.77943     
     65000   0.99244536    -0.30959144     10648         -2.9740423     -4.4624899      0             -4.4624899      0              0              0              0             -3.4622724     -4.4624899      1.4884476      22             22             22             11.943556    
     66000   0.99648176    -0.3402269      10648         -2.9612052     -4.4557064      0             -4.4557064      0              0              0              0             -3.4977478     -4.4557064      1.4945013      22             22             22             12.113422    
     67000   0.98239253    -0.25946293     10648         -2.9801931     -4.4535637      0             -4.4535637      0              0              0              0             -3.3893698     -4.4535637      1.4733705      22             22             22             12.284658    
     68000   0.98898509    -0.24087953     10648         -2.9739315     -4.4571895      0             -4.4571895      0              0              0              0             -3.353802      -4.4571895      1.4832579      22             22             22             12.454027    
     69000   0.99196251    -0.25853471     10648         -2.9584187     -4.446142       0             -4.446142       0              0              0              0             -3.3661316     -4.446142       1.4877234      22             22             22             12.619043    
     70000   0.99731003    -0.25233717     10648         -2.9646253     -4.4603688      0             -4.4603688      0              0              0              0             -3.3625646     -4.4603688      1.4957435      22             22             22             12.783684    
     71000   0.98023462    -0.25047121     10648         -2.9787973     -4.4489314      0             -4.4489314      0              0              0              0             -3.3737939     -4.4489314      1.4701342      22             22             22             12.95283     
     72000   0.99543437    -0.26988725     10648         -2.9573615     -4.4502919      0             -4.4502919      0              0              0              0             -3.3829775     -4.4502919      1.4929304      22             22             22             13.117364    
     73000   1.0154439     -0.26463098     10648         -2.9361293     -4.4590695      0             -4.4590695      0              0              0              0             -3.3534562     -4.4590695      1.5229402      22             22             22             13.280926    
     74000   1.0131218     -0.16665125     10648         -2.9154557     -4.4349133      0             -4.4349133      0              0              0              0             -3.1782671     -4.4349133      1.5194577      22             22             22             13.444834    
     75000   1.002101      -0.22452183     10648         -2.9358253     -4.4387541      0             -4.4387541      0              0              0              0             -3.2898994     -4.4387541      1.5029288      22             22             22             13.609256    
     76000   1.0216472     -0.21681862     10648         -2.9234791     -4.4557229      0             -4.4557229      0              0              0              0             -3.2654051     -4.4557229      1.5322439      22             22             22             13.772413    
     77000   1.0125039     -0.19340978     10648         -2.906042      -4.4245729      0             -4.4245729      0              0              0              0             -3.211052      -4.4245729      1.518531       22             22             22             13.935951    
     78000   1.0034034     -0.21299265     10648         -2.9355905     -4.4404727      0             -4.4404727      0              0              0              0             -3.2714829     -4.4404727      1.5048822      22             22             22             14.099334    
     79000   0.99181162    -0.21531828     10648         -2.950374      -4.437871       0             -4.437871       0              0              0              0             -3.2899339     -4.437871       1.4874971      22             22             22             14.262198    
     80000   1.0008421     -0.16198446     10648         -2.9474925     -4.4485332      0             -4.4485332      0              0              0              0             -3.2029443     -4.4485332      1.5010407      22             22             22             14.427824    
     81000   1.0000335     -0.24593508     10648         -2.9512817     -4.4511097      0             -4.4511097      0              0              0              0             -3.3391248     -4.4511097      1.499828       22             22             22             14.800076    
     82000   1.0003215     -0.23383297     10648         -2.9469794     -4.4472395      0             -4.4472395      0              0              0              0             -3.3157374     -4.4472395      1.5002601      22             22             22             14.96535     
     83000   1.0101399     -0.27347154     10648         -2.9444152     -4.4594006      0             -4.4594006      0              0              0              0             -3.3756837     -4.4594006      1.5149855      22             22             22             15.130619    
     84000   1.0054274     -0.22519042     10648         -2.9472843     -4.4552021      0             -4.4552021      0              0              0              0             -3.3024128     -4.4552021      1.5079177      22             22             22             15.295023    
     85000   1.0001358     -0.25532112     10648         -2.947632      -4.4476135      0             -4.4476135      0              0              0              0             -3.350277      -4.4476135      1.4999815      22             22             22             15.458422    
     86000   1.0143176     -0.25887014     10648         -2.9288176     -4.4500686      0             -4.4500686      0              0              0              0             -3.3370595     -4.4500686      1.521251       22             22             22             15.623644    
     87000   0.99282939    -0.18480891     10648         -2.946769      -4.4357926      0             -4.4357926      0              0              0              0             -3.2382153     -4.4357926      1.4890235      22             22             22             15.787361    
     88000   0.97220772    -0.23045319     10648         -2.989205      -4.4473006      0             -4.4473006      0              0              0              0             -3.3526329     -4.4473006      1.4580956      22             22             22             15.950767    
     89000   0.99641036    -0.26516497     10648         -2.952243      -4.4466371      0             -4.4466371      0              0              0              0             -3.3704119     -4.4466371      1.4943942      22             22             22             16.116396    
     90000   0.99143666    -0.24517986     10648         -2.963378      -4.4503127      0             -4.4503127      0              0              0              0             -3.3500301     -4.4503127      1.4869347      22             22             22             16.286667    
     91000   0.98036431    -0.31970589     10648         -2.9999399     -4.4702686      0             -4.4702686      0              0              0              0             -3.5041206     -4.4702686      1.4703287      22             22             22             16.463316    
     92000   0.98410116    -0.26574235     10648         -2.977922      -4.4538551      0             -4.4538551      0              0              0              0             -3.3970015     -4.4538551      1.4759331      22             22             22             16.627753    
     93000   0.98747563    -0.2681994      10648         -2.9652681     -4.4462622      0             -4.4462622      0              0              0              0             -3.3882224     -4.4462622      1.4809941      22             22             22             16.793984    
     94000   0.99860881    -0.23851558     10648         -2.9482653     -4.4459566      0             -4.4459566      0              0              0              0             -3.3244077     -4.4459566      1.4976914      22             22             22             16.958948    
     95000   0.99751709    -0.19279775     10648         -2.9480497     -4.4441038      0             -4.4441038      0              0              0              0             -3.2520945     -4.4441038      1.496054       22             22             22             17.123961    
     96000   0.99792646    -0.25591008     10648         -2.9579537     -4.4546217      0             -4.4546217      0              0              0              0             -3.3615275     -4.4546217      1.496668       22             22             22             17.287957    
     97000   1.0097944     -0.18074564     10648         -2.9126229     -4.4270902      0             -4.4270902      0              0              0              0             -3.1976613     -4.4270902      1.5144673      22             22             22             17.453507    
     98000   0.99785021    -0.31031239     10648         -2.9666277     -4.4631813      0             -4.4631813      0              0              0              0             -3.4559947     -4.4631813      1.4965536      22             22             22             17.616758    
     99000   0.99697454    -0.24422153     10648         -2.9637513     -4.4589916      0             -4.4589916      0              0              0              0             -3.3488921     -4.4589916      1.4952403      22             22             22             17.780228    
    100000   1.0109486     -0.27229669     10648         -2.9378576     -4.4540559      0             -4.4540559      0              0              0              0             -3.3672734     -4.4540559      1.5161983      22             22             22             17.944363    
    101000   1.0057776     -0.21333728     10648         -2.9295029     -4.4379458      0             -4.4379458      0              0              0              0             -3.2659389     -4.4379458      1.5084429      22             22             22             18.178652    
    102000   1.0027263     -0.20617572     10648         -2.9374324     -4.441299       0             -4.441299       0              0              0              0             -3.2625744     -4.441299       1.5038667      22             22             22             18.343746    
    103000   1.0097204     -0.20792621     10648         -2.9379313     -4.4522875      0             -4.4522875      0              0              0              0             -3.2658339     -4.4522875      1.5143562      22             22             22             18.509483    
    104000   0.99876229    -0.26766686     10648         -2.9596466     -4.4575681      0             -4.4575681      0              0              0              0             -3.381761      -4.4575681      1.4979216      22             22             22             18.67425     
    105000   0.98576782    -0.27483926     10648         -2.9675679     -4.4460006      0             -4.4460006      0              0              0              0             -3.4009933     -4.4460006      1.4784327      22             22             22             18.839253    
    106000   1.0108175     -0.22354422     10648         -2.9307955     -4.4467973      0             -4.4467973      0              0              0              0             -3.283328      -4.4467973      1.5160017      22             22             22             19.004506    
    107000   1.0111531     -0.24470326     10648         -2.9400972     -4.4566022      0             -4.4566022      0              0              0              0             -3.3259977     -4.4566022      1.516505       22             22             22             19.169383    
    108000   0.99593729    -0.20625023     10648         -2.9416767     -4.4353614      0             -4.4353614      0              0              0              0             -3.2669362     -4.4353614      1.4936847      22             22             22             19.333201    
    109000   1.0025419     -0.22416064     10648         -2.9389711     -4.4425613      0             -4.4425613      0              0              0              0             -3.2924756     -4.4425613      1.5035902      22             22             22             19.496478    
    110000   1.0059217     -0.23146545     10648         -2.9392523     -4.4479114      0             -4.4479114      0              0              0              0             -3.3042766     -4.4479114      1.508659       22             22             22             19.6618      
    111000   1.0182381     -0.20684813     10648         -2.9087039     -4.4358348      0             -4.4358348      0              0              0              0             -3.2349063     -4.4358348      1.527131       22             22             22             19.830262    
    112000   0.99825691    -0.23949353     10648         -2.9473115     -4.4444751      0             -4.4444751      0              0              0              0             -3.3249962     -4.4444751      1.4971636      22             22             22             19.994826    
    113000   1.0133183     -0.27257275     10648         -2.9310934     -4.4508457      0             -4.4508457      0              0              0              0             -3.3609445     -4.4508457      1.5197523      22             22             22             20.159172    
    114000   1.0002825     -0.19935867     10648         -2.9466641     -4.4468657      0             -4.4468657      0              0              0              0             -3.2610556     -4.4468657      1.5002016      22             22             22             20.323714    
    115000   0.9887067     -0.22506121     10648         -2.972485      -4.4553254      0             -4.4553254      0              0              0              0             -3.3274097     -4.4553254      1.4828404      22             22             22             20.488555    
    116000   0.98643346    -0.26743001     10648         -2.9759602     -4.4553912      0             -4.4553912      0              0              0              0             -3.3977011     -4.4553912      1.4794311      22             22             22             20.652036    
    117000   0.98961734    -0.28550558     10648         -2.9785054     -4.4627115      0             -4.4627115      0              0              0              0             -3.4287518     -4.4627115      1.4842062      22             22             22             20.815393    
    118000   1.0051431     -0.28409388     10648         -2.9493728     -4.4568641      0             -4.4568641      0              0              0              0             -3.3973929     -4.4568641      1.5074913      22             22             22             20.978326    
    119000   0.99964873    -0.18214412     10648         -2.9384319     -4.4376829      0             -4.4376829      0              0              0              0             -3.2256758     -4.4376829      1.499251       22             22             22             21.141129    
    120000   1.015648      -0.233938       10648         -2.9299132     -4.4531596      0             -4.4531596      0              0              0              0             -3.2988368     -4.4531596      1.5232464      22             22             22             21.304488    
    121000   1.0109376     -0.22766084     10648         -2.9348199     -4.4510017      0             -4.4510017      0              0              0              0             -3.2938443     -4.4510017      1.5161818      22             22             22             21.47666     
    122000   1.0124175     -0.21752473     10648         -2.917772      -4.4361734      0             -4.4361734      0              0              0              0             -3.2608116     -4.4361734      1.5184014      22             22             22             21.646104    
    123000   0.9871526     -0.25435188     10648         -2.9651208     -4.4456304      0             -4.4456304      0              0              0              0             -3.3662373     -4.4456304      1.4805096      22             22             22             21.817817    
    124000   1.0088558     -0.30408898     10648         -2.9578061     -4.4708656      0             -4.4708656      0              0              0              0             -3.4373587     -4.4708656      1.5130595      22             22             22             21.983765    
    125000   0.97916763    -0.20740266     10648         -2.9743943     -4.4429282      0             -4.4429282      0              0              0              0             -3.3014713     -4.4429282      1.4685339      22             22             22             22.147881    
    126000   1.000174      -0.26071908     10648         -2.9448118     -4.4448507      0             -4.4448507      0              0              0              0             -3.3559695     -4.4448507      1.5000389      22             22             22             22.312223    
    127000   0.99712452    -0.19358826     10648         -2.9606519     -4.4561171      0             -4.4561171      0              0              0              0             -3.2659433     -4.4561171      1.4954653      22             22             22             22.475437    
    128000   0.99394469    -0.21577278     10648         -2.9485532     -4.4392494      0             -4.4392494      0              0              0              0             -3.2888299     -4.4392494      1.4906962      22             22             22             22.640085    
    129000   0.99593807    -0.19434484     10648         -2.953551      -4.4472368      0             -4.4472368      0              0              0              0             -3.2600355     -4.4472368      1.4936858      22             22             22             22.804312    
    130000   1.0020489     -0.26816853     10648         -2.9469175     -4.4497683      0             -4.4497683      0              0              0              0             -3.3698231     -4.4497683      1.5028508      22             22             22             22.967725    
    131000   1.0042681     -0.19472112     10648         -2.9369416     -4.4431206      0             -4.4431206      0              0              0              0             -3.2440196     -4.4431206      1.506179       22             22             22             23.195554    
    132000   1.0025494     -0.27656844     10648         -2.9487459     -4.4523473      0             -4.4523473      0              0              0              0             -3.3848982     -4.4523473      1.5036014      22             22             22             23.359127    
    133000   0.99882269    -0.27115278     10648         -2.9632953     -4.4613074      0             -4.4613074      0              0              0              0             -3.390907      -4.4613074      1.4980121      22             22             22             23.523942    
    134000   0.99472775    -0.24078196     10648         -2.962559      -4.4544296      0             -4.4544296      0              0              0              0             -3.3422756     -4.4544296      1.4918706      22             22             22             23.687829    
    135000   1.0020894     -0.19929126     10648         -2.9469789     -4.4498904      0             -4.4498904      0              0              0              0             -3.2612641     -4.4498904      1.5029115      22             22             22             23.851277    
    136000   0.9870153     -0.19009412     10648         -2.9530466     -4.4333503      0             -4.4333503      0              0              0              0             -3.2528277     -4.4333503      1.4803037      22             22             22             24.015947    
    137000   1.0134866     -0.23795319     10648         -2.9356009     -4.4556056      0             -4.4556056      0              0              0              0             -3.3108564     -4.4556056      1.5200047      22             22             22             24.18056     
    138000   1.0056049     -0.27384168     10648         -2.9585319     -4.4667159      0             -4.4667159      0              0              0              0             -3.3903842     -4.4667159      1.508184       22             22             22             24.344215    
    139000   0.97794264    -0.17964507     10648         -2.9660893     -4.432786       0             -4.432786       0              0              0              0             -3.2493922     -4.432786       1.4666967      22             22             22             24.508412    
    140000   1.0007411     -0.20029582     10648         -2.9371671     -4.4380565      0             -4.4380565      0              0              0              0             -3.2530365     -4.4380565      1.5008894      22             22             22             24.6727      
    141000   1.0066988     -0.15411406     10648         -2.9329361     -4.4427606      0             -4.4427606      0              0              0              0             -3.1759761     -4.4427606      1.5098245      22             22             22             24.84346     
    142000   1.0125045     -0.19327531     10648         -2.9179126     -4.4364444      0             -4.4364444      0              0              0              0             -3.2227105     -4.4364444      1.5185318      22             22             22             25.007457    
    143000   1.0158814     -0.22224199     10648         -2.9307733     -4.4543697      0             -4.4543697      0              0              0              0             -3.2812521     -4.4543697      1.5235964      22             22             22             25.171445    
    144000   1.004749      -0.24222379     10648         -2.9340178     -4.4409181      0             -4.4409181      0              0              0              0             -3.3160081     -4.4409181      1.5069003      22             22             22             25.334677    
    145000   0.99605806    -0.26496446     10648         -2.9645745     -4.4584403      0             -4.4584403      0              0              0              0             -3.3824272     -4.4584403      1.4938658      22             22             22             25.498429    
    146000   1.004327      -0.26411592     10648         -2.9370655     -4.4433328      0             -4.4433328      0              0              0              0             -3.35358       -4.4433328      1.5062673      22             22             22             25.662743    
    147000   1.0070987     -0.20184331     10648         -2.9296316     -4.440056       0             -4.440056       0              0              0              0             -3.2479414     -4.440056       1.5104243      22             22             22             25.828036    
    148000   0.9859214     -0.25316803     10648         -2.9641718     -4.4428349      0             -4.4428349      0              0              0              0             -3.3634214     -4.4428349      1.4786631      22             22             22             25.99092     
    149000   0.99409344    -0.26673802     10648         -2.9528401     -4.4437594      0             -4.4437594      0              0              0              0             -3.3734897     -4.4437594      1.4909193      22             22             22             26.154788    
    150000   0.99554009    -0.15483147     10648         -2.9312298     -4.4243188      0             -4.4243188      0              0              0              0             -3.1754012     -4.4243188      1.493089       22             22             22             26.31935     
    151000   1.0179457     -0.22878492     10648         -2.9082336     -4.4349261      0             -4.4349261      0              0              0              0             -3.2690307     -4.4349261      1.5266924      22             22             22             26.487785    
    152000   1.002817      -0.27366601     10648         -2.9488683     -4.452871       0             -4.452871       0              0              0              0             -3.3804434     -4.452871       1.5040027      22             22             22             26.651523    
    153000   1.0159698     -0.29303708     10648         -2.9355259     -4.4592549      0             -4.4592549      0              0              0              0             -3.3976496     -4.4592549      1.5237289      22             22             22             26.815478    
    154000   0.99483915    -0.22108723     10648         -2.9393287     -4.4313664      0             -4.4313664      0              0              0              0             -3.2879864     -4.4313664      1.4920377      22             22             22             26.978719    
    155000   1.0052349     -0.26215298     10648         -2.9422277     -4.4498567      0             -4.4498567      0              0              0              0             -3.3556467     -4.4498567      1.507629       22             22             22             27.142431    
    156000   1.0082351     -0.24633976     10648         -2.9342751     -4.4464038      0             -4.4464038      0              0              0              0             -3.3227564     -4.4464038      1.5121287      22             22             22             27.305835    
    157000   1.0052503     -0.30421641     10648         -2.9543        -4.4619521      0             -4.4619521      0              0              0              0             -3.4340536     -4.4619521      1.5076521      22             22             22             27.469771    
    158000   1.0016444     -0.262443       10648         -2.9514121     -4.4536561      0             -4.4536561      0              0              0              0             -3.3652885     -4.4536561      1.502244       22             22             22             27.633751    
    159000   1.0103018     -0.22822783     10648         -2.9192982     -4.4345265      0             -4.4345265      0              0              0              0             -3.2792168     -4.4345265      1.5152282      22             22             22             27.797365    
    160000   1.0019813     -0.19300171     10648         -2.9348757     -4.4376251      0             -4.4376251      0              0              0              0             -3.2392421     -4.4376251      1.5027494      22             22             22             27.961762    
    161000   1.0157705     -0.22163892     10648         -2.9234869     -4.446917       0             -4.446917       0              0              0              0             -3.2730146     -4.446917       1.5234301      22             22             22             28.129922    
    162000   1.0143112     -0.23678678     10648         -2.9231673     -4.4444087      0             -4.4444087      0              0              0              0             -3.2965834     -4.4444087      1.5212414      22             22             22             28.295578    
    163000   1.0140296     -0.24805137     10648         -2.9276604     -4.4484795      0             -4.4484795      0              0              0              0             -3.3188409     -4.4484795      1.5208191      22             22             22             28.462069    
    164000   1.0024505     -0.20583229     10648         -2.9423978     -4.4458509      0             -4.4458509      0              0              0              0             -3.2669982     -4.4458509      1.5034531      22             22             22             28.633622    
    165000   1.006685      -0.21833048     10648         -2.9364273     -4.4462311      0             -4.4462311      0              0              0              0             -3.2807376     -4.4462311      1.5098038      22             22             22             28.80341     
    166000   1.0017199     -0.17794664     10648         -2.9408133     -4.4431707      0             -4.4431707      0              0              0              0             -3.2214377     -4.4431707      1.5023574      22             22             22             28.968309    
    167000   1.0036404     -0.23077457     10648         -2.933345      -4.4385826      0             -4.4385826      0              0              0              0             -3.2972797     -4.4385826      1.5052377      22             22             22             29.132367    
    168000   1.0054607     -0.26234391     10648         -2.9506888     -4.4586564      0             -4.4586564      0              0              0              0             -3.3644089     -4.4586564      1.5079676      22             22             22             29.297583    
    169000   0.99275937    -0.22972359     10648         -2.9710725     -4.459991       0             -4.459991       0              0              0              0             -3.3333498     -4.459991       1.4889185      22             22             22             29.461203    
    170000   1.0019048     -0.27526115     10648         -2.9544719     -4.4571065      0             -4.4571065      0              0              0              0             -3.3885626     -4.4571065      1.5026346      22             22             22             29.626432    
    171000   1.013145      -0.17618299     10648         -2.9283474     -4.4478398      0             -4.4478398      0              0              0              0             -3.2061905     -4.4478398      1.5194924      22             22             22             29.798187    
    172000   0.99992114    -0.17762623     10648         -2.9409298     -4.4405894      0             -4.4405894      0              0              0              0             -3.2210489     -4.4405894      1.4996596      22             22             22             29.962467    
    173000   1.0123678     -0.23638759     10648         -2.9310012     -4.4493279      0             -4.4493279      0              0              0              0             -3.3037878     -4.4493279      1.5183268      22             22             22             30.125612    
    174000   0.99940583    -0.21693588     10648         -2.946927      -4.4458137      0             -4.4458137      0              0              0              0             -3.289038      -4.4458137      1.4988867      22             22             22             30.288769    
    175000   1.0121156     -0.15171395     10648         -2.910805      -4.4287535      0             -4.4287535      0              0              0              0             -3.1500601     -4.4287535      1.5179485      22             22             22             30.452687    
    176000   1.0105208     -0.31288223     10648         -2.9377465     -4.4533032      0             -4.4533032      0              0              0              0             -3.4311662     -4.4533032      1.5155567      22             22             22             30.61722     
    177000   0.97704969    -0.19807831     10648         -2.9793809     -4.4447383      0             -4.4447383      0              0              0              0             -3.2917532     -4.4447383      1.4653575      22             22             22             30.781757    
    178000   0.99211928    -0.15811317     10648         -2.9355311     -4.4234896      0             -4.4234896      0              0              0              0             -3.1848778     -4.4234896      1.4879585      22             22             22             30.94676     
    179000   0.98465695    -0.27812028     10648         -2.9860687     -4.4628354      0             -4.4628354      0              0              0              0             -3.4246683     -4.4628354      1.4767667      22             22             22             31.111686    
    180000   0.99901301    -0.24244023     10648         -2.9545035     -4.4528011      0             -4.4528011      0              0              0              0             -3.3368352     -4.4528011      1.4982976      22             22             22             31.276478    
    181000   0.99335115    -0.29140665     10648         -2.9639382     -4.4537442      0             -4.4537442      0              0              0              0             -3.4234906     -4.4537442      1.489806       22             22             22             31.446745    
    182000   0.96991584    -0.2812137      10648         -3.0002707     -4.454929       0             -4.454929       0              0              0              0             -3.4437488     -4.454929       1.4546583      22             22             22             31.611526    
    183000   1.0008374     -0.27417404     10648         -2.9479589     -4.4489927      0             -4.4489927      0              0              0              0             -3.3803352     -4.4489927      1.5010338      22             22             22             31.775831    
    184000   1.0005497     -0.25158698     10648         -2.9450515     -4.4456538      0             -4.4456538      0              0              0              0             -3.3418078     -4.4456538      1.5006023      22             22             22             31.940206    
    185000   0.99992767    -0.24789752     10648         -2.9414307     -4.4411001      0             -4.4411001      0              0              0              0             -3.3323686     -4.4411001      1.4996694      22             22             22             32.103749    
    186000   0.996203      -0.23250549     10648         -2.952158      -4.4462411      0             -4.4462411      0              0              0              0             -3.3188224     -4.4462411      1.4940832      22             22             22             32.266693    
    187000   1.0034783     -0.23749646     10648         -2.9394222     -4.4444167      0             -4.4444167      0              0              0              0             -3.3139575     -4.4444167      1.5049945      22             22             22             32.430387    
    188000   0.99295265    -0.25816879     10648         -2.969688      -4.4588964      0             -4.4588964      0              0              0              0             -3.3768238     -4.4588964      1.4892084      22             22             22             32.593868    
    189000   0.99871883    -0.19154815     10648         -2.9426797     -4.440536       0             -4.440536       0              0              0              0             -3.2447538     -4.440536       1.4978564      22             22             22             32.757517    
    190000   0.98870574    -0.21338403     10648         -2.9685335     -4.4513725      0             -4.4513725      0              0              0              0             -3.3050432     -4.4513725      1.482839       22             22             22             32.923693    
    191000   1.006686      -0.25664239     10648         -2.9391932     -4.4489985      0             -4.4489985      0              0              0              0             -3.3439219     -4.4489985      1.5098053      22             22             22             33.095623    
    192000   1.0093808     -0.21548479     10648         -2.9216315     -4.4354785      0             -4.4354785      0              0              0              0             -3.2614541     -4.4354785      1.513847       22             22             22             33.259504    
    193000   1.0092501     -0.24879804     10648         -2.9345092     -4.4481602      0             -4.4481602      0              0              0              0             -3.3268673     -4.4481602      1.513651       22             22             22             33.423789    
    194000   1.0038927     -0.27543804     10648         -2.9487086     -4.4543246      0             -4.4543246      0              0              0              0             -3.3830783     -4.4543246      1.505616       22             22             22             33.587893    
    195000   1.0043997     -0.24367132     10648         -2.9304475     -4.4368239      0             -4.4368239      0              0              0              0             -3.3147206     -4.4368239      1.5063764      22             22             22             33.751288    
    196000   1.0055599     -0.22428315     10648         -2.9298708     -4.4379873      0             -4.4379873      0              0              0              0             -3.2835685     -4.4379873      1.5081165      22             22             22             33.914148    
    197000   1.0049717     -0.31340103     10648         -2.9511821     -4.4584164      0             -4.4584164      0              0              0              0             -3.44542       -4.4584164      1.5072343      22             22             22             34.077682    
    198000   1.0151546     -0.2364511      10648         -2.9345038     -4.4570102      0             -4.4570102      0              0              0              0             -3.3073905     -4.4570102      1.5225064      22             22             22             34.24201     
    199000   1.0061817     -0.21742097     10648         -2.935462      -4.444511       0             -4.444511       0              0              0              0             -3.278338      -4.444511       1.509049       22             22             22             34.404651    
    200000   1.0138236     -0.1622364      10648         -2.9234887     -4.4439988      0             -4.4439988      0              0              0              0             -3.1793378     -4.4439988      1.5205101      22             22             22             34.568762    
    201000   1.0071089     -0.20462419     10648         -2.941224      -4.4516636      0             -4.4516636      0              0              0              0             -3.2639192     -4.4516636      1.5104397      22             22             22             34.740808    
    202000   0.99577546    -0.21662804     10648         -2.9430446     -4.4364865      0             -4.4364865      0              0              0              0             -3.2846701     -4.4364865      1.493442       22             22             22             34.905596    
    203000   1.0046236     -0.24162248     10648         -2.9476005     -4.4543128      0             -4.4543128      0              0              0              0             -3.3286426     -4.4543128      1.5067123      22             22             22             35.069973    
    204000   0.99362714    -0.22598725     10648         -2.9509207     -4.4411407      0             -4.4411407      0              0              0              0             -3.3073058     -4.4411407      1.49022        22             22             22             35.2343      
    205000   0.99887341    -0.27583766     10648         -2.9586741     -4.4567623      0             -4.4567623      0              0              0              0             -3.393674      -4.4567623      1.4980882      22             22             22             35.39815     
    206000   1.0018964     -0.25088114     10648         -2.9439736     -4.4465955      0             -4.4465955      0              0              0              0             -3.3396167     -4.4465955      1.502622       22             22             22             35.561997    
    207000   0.99645048    -0.22649662     10648         -2.9419465     -4.4364008      0             -4.4364008      0              0              0              0             -3.2991348     -4.4364008      1.4944544      22             22             22             35.725608    
    208000   0.9960761     -0.25485254     10648         -2.9643083     -4.4582012      0             -4.4582012      0              0              0              0             -3.3662144     -4.4582012      1.4938929      22             22             22             35.890974    
    209000   0.99912298    -0.20647632     10648         -2.9540233     -4.4524858      0             -4.4524858      0              0              0              0             -3.2796394     -4.4524858      1.4984625      22             22             22             36.054898    
    210000   0.99467969    -0.20142307     10648         -2.9493278     -4.4411263      0             -4.4411263      0              0              0              0             -3.2669748     -4.4411263      1.4917986      22             22             22             36.218796    
    211000   1.0119943     -0.25148218     10648         -2.9283772     -4.4461438      0             -4.4461438      0              0              0              0             -3.3249681     -4.4461438      1.5177667      22             22             22             36.388883    
    212000   1.0138083     -0.24743479     10648         -2.9181309     -4.4386181      0             -4.4386181      0              0              0              0             -3.308339      -4.4386181      1.5204873      22             22             22             36.552806    
    213000   0.98274914    -0.22127564     10648         -2.9611259     -4.4350312      0             -4.4350312      0              0              0              0             -3.3100807     -4.4350312      1.4739054      22             22             22             36.717478    
    214000   0.98609326    -0.18286252     10648         -2.9686376     -4.4475584      0             -4.4475584      0              0              0              0             -3.2570144     -4.4475584      1.4789208      22             22             22             36.880005    
    215000   0.99697279    -0.29197035     10648         -2.9650918     -4.4603295      0             -4.4603295      0              0              0              0             -3.4255332     -4.4603295      1.4952377      22             22             22             37.043661    
    216000   1.0145031     -0.26302932     10648         -2.9253593     -4.4468885      0             -4.4468885      0              0              0              0             -3.3401603     -4.4468885      1.5215293      22             22             22             37.207302    
    217000   1.0046457     -0.24746379     10648         -2.9505117     -4.4572571      0             -4.4572571      0              0              0              0             -3.3407657     -4.4572571      1.5067453      22             22             22             37.371448    
    218000   0.99269941    -0.16862747     10648         -2.9489532     -4.4377818      0             -4.4377818      0              0              0              0             -3.2148811     -4.4377818      1.4888286      22             22             22             37.541412    
    219000   0.99353998    -0.2590215      10648         -2.9618219     -4.4519111      0             -4.4519111      0              0              0              0             -3.3703025     -4.4519111      1.4900892      22             22             22             37.712211    
    220000   0.99560094    -0.21260334     10648         -2.9536048     -4.446785       0             -4.446785       0              0              0              0             -3.2888833     -4.446785       1.4931802      22             22             22             37.883233    
    221000   1.0114791     -0.22640445     10648         -2.9279782     -4.4449721      0             -4.4449721      0              0              0              0             -3.2850213     -4.4449721      1.5169939      22             22             22             38.053676    
    222000   0.99960693    -0.19922946     10648         -2.9504662     -4.4496546      0             -4.4496546      0              0              0              0             -3.2646539     -4.4496546      1.4991883      22             22             22             38.216543    
    223000   1.0095632     -0.23308711     10648         -2.9364065     -4.450527       0             -4.450527       0              0              0              0             -3.3039882     -4.450527       1.5141205      22             22             22             38.380711    
    224000   1.0142055     -0.22104755     10648         -2.9333898     -4.4544728      0             -4.4544728      0              0              0              0             -3.281985      -4.4544728      1.5210829      22             22             22             38.544079    
    225000   1.008483      -0.19186983     10648         -2.9309352     -4.4434356      0             -4.4434356      0              0              0              0             -3.2335167     -4.4434356      1.5125004      22             22             22             38.709602    
    226000   1.0126292     -0.25406508     10648         -2.9347141     -4.4534329      0             -4.4534329      0              0              0              0             -3.3353783     -4.4534329      1.5187188      22             22             22             38.872975    
    227000   1.0236644     -0.15956225     10648         -2.908432      -4.4437012      0             -4.4437012      0              0              0              0             -3.160064      -4.4437012      1.5352691      22             22             22             39.038415    
    228000   1.0155139     -0.22228988     10648         -2.9308215     -4.4538667      0             -4.4538667      0              0              0              0             -3.2813758     -4.4538667      1.5230452      22             22             22             39.201521    
    229000   1.0061503     -0.22488515     10648         -2.9452663     -4.4542682      0             -4.4542682      0              0              0              0             -3.2999134     -4.4542682      1.5090019      22             22             22             39.365739    
    230000   0.9927548     -0.22844997     10648         -2.9488226     -4.4377342      0             -4.4377342      0              0              0              0             -3.3090914     -4.4377342      1.4889117      22             22             22             39.53005     
    231000   0.97519307    -0.20700482     10648         -2.9825283     -4.4451013      0             -4.4451013      0              0              0              0             -3.3089778     -4.4451013      1.462573       22             22             22             39.69987     
    232000   0.99361466    -0.33922426     10648         -2.9681152     -4.4583164      0             -4.4583164      0              0              0              0             -3.5030766     -4.4583164      1.4902012      22             22             22             39.86497     
    233000   0.99908207    -0.25852577     10648         -2.9580875     -4.4564886      0             -4.4564886      0              0              0              0             -3.3657863     -4.4564886      1.4984012      22             22             22             40.028732    
    234000   0.99497792    -0.2778453      10648         -2.9619828     -4.4542286      0             -4.4542286      0              0              0              0             -3.4001488     -4.4542286      1.4922458      22             22             22             40.191167    
    235000   0.98982865    -0.28027618     10648         -2.9847439     -4.469267       0             -4.469267       0              0              0              0             -3.4267435     -4.469267       1.4845231      22             22             22             40.354948    
    236000   0.99960803    -0.25008894     10648         -2.9587321     -4.4579221      0             -4.4579221      0              0              0              0             -3.3531259     -4.4579221      1.49919        22             22             22             40.519014    
    237000   0.99286471    -0.38884288     10648         -2.9918173     -4.4808937      0             -4.4808937      0              0              0              0             -3.605028      -4.4808937      1.4890765      22             22             22             40.684093    
    238000   1.0008437     -0.27036232     10648         -2.9533072     -4.4543504      0             -4.4543504      0              0              0              0             -3.3796724     -4.4543504      1.5010432      22             22             22             40.848195    
    239000   0.99789988    -0.26788912     10648         -2.9502456     -4.4468737      0             -4.4468737      0              0              0              0             -3.3727105     -4.4468737      1.4966281      22             22             22             41.014051    
    240000   1.006124      -0.28648277     10648         -2.9490474     -4.4580098      0             -4.4580098      0              0              0              0             -3.4008348     -4.4580098      1.5089624      22             22             22             41.179649    
    241000   0.98944027    -0.27451441     10648         -2.970675      -4.4546156      0             -4.4546156      0              0              0              0             -3.4035881     -4.4546156      1.4839406      22             22             22             41.349239    
    242000   0.99216588    -0.18622652     10648         -2.9502654     -4.4382938      0             -4.4382938      0              0              0              0             -3.2439472     -4.4382938      1.4880284      22             22             22             41.513829    
    243000   0.99764943    -0.24717255     10648         -2.9517538     -4.4480063      0             -4.4480063      0              0              0              0             -3.3415484     -4.4480063      1.4962525      22             22             22             41.678221    
    244000   0.99309304    -0.2717098      10648         -2.9583165     -4.4477355      0             -4.4477355      0              0              0              0             -3.3868067     -4.4477355      1.4894189      22             22             22             41.842858    
    245000   0.99585237    -0.2734788      10648         -2.9586393     -4.4521966      0             -4.4521966      0              0              0              0             -3.3899192     -4.4521966      1.4935573      22             22             22             42.006295    
    246000   0.98804137    -0.23694494     10648         -2.9549218     -4.4367643      0             -4.4367643      0              0              0              0             -3.3285873     -4.4367643      1.4818426      22             22             22             42.169432    
    247000   0.98593299    -0.23796839     10648         -2.9653844     -4.4440649      0             -4.4440649      0              0              0              0             -3.3406639     -4.4440649      1.4786805      22             22             22             42.331765    
    248000   0.98313294    -0.22376278     10648         -2.971125      -4.445606       0             -4.445606       0              0              0              0             -3.3240021     -4.445606       1.474481       22             22             22             42.495274    
    249000   1.0163776     -0.20708113     10648         -2.9110605     -4.4354011      0             -4.4354011      0              0              0              0             -3.2376304     -4.4354011      1.5243405      22             22             22             42.658364    
    250000   1.0173382     -0.20783368     10648         -2.9335493     -4.4593306      0             -4.4593306      0              0              0              0             -3.261306      -4.4593306      1.5257813      22             22             22             42.82125     
    251000   0.99962698    -0.27124136     10648         -2.9431169     -4.4423352      0             -4.4423352      0              0              0              0             -3.3708683     -4.4423352      1.4992184      22             22             22             42.99158     
    252000   1.0026488     -0.2515148      10648         -2.9349478     -4.4386983      0             -4.4386983      0              0              0              0             -3.3315902     -4.4386983      1.5037505      22             22             22             43.15475     
    253000   0.99053621    -0.18662249     10648         -2.9494832     -4.4350675      0             -4.4350675      0              0              0              0             -3.2437896     -4.4350675      1.4855843      22             22             22             43.319574    
    254000   0.99288141    -0.19258446     10648         -2.9501872     -4.4392888      0             -4.4392888      0              0              0              0             -3.2538957     -4.4392888      1.4891015      22             22             22             43.483418    
    255000   0.99467875    -0.19260613     10648         -2.9391756     -4.4309728      0             -4.4309728      0              0              0              0             -3.2429182     -4.4309728      1.4917971      22             22             22             43.646599    
    256000   0.99799598    -0.26115581     10648         -2.9714931     -4.4682653      0             -4.4682653      0              0              0              0             -3.3833395     -4.4682653      1.4967723      22             22             22             43.810721    
    257000   0.97811611    -0.26158682     10648         -2.9863646     -4.4533215      0             -4.4533215      0              0              0              0             -3.3988907     -4.4533215      1.4669569      22             22             22             43.974171    
    258000   0.9785033     -0.19993019     10648         -2.9624755     -4.430013       0             -4.430013       0              0              0              0             -3.2777682     -4.430013       1.4675376      22             22             22             44.137662    
    259000   1.0007072     -0.28837572     10648         -2.9532043     -4.4540427      0             -4.4540427      0              0              0              0             -3.4079769     -4.4540427      1.5008384      22             22             22             44.301007    
    260000   1.0026728     -0.25133349     10648         -2.948295      -4.4520814      0             -4.4520814      0              0              0              0             -3.3446515     -4.4520814      1.5037864      22             22             22             44.465606    
    261000   0.99538367    -0.24714093     10648         -2.9498608     -4.4427152      0             -4.4427152      0              0              0              0             -3.3396055     -4.4427152      1.4928544      22             22             22             44.636182    
    262000   1.0163308     -0.2271762      10648         -2.9215767     -4.4458472      0             -4.4458472      0              0              0              0             -3.2798368     -4.4458472      1.5242704      22             22             22             44.799524    
    263000   1.0127406     -0.23205415     10648         -2.9332963     -4.4521822      0             -4.4521822      0              0              0              0             -3.299249      -4.4521822      1.5188859      22             22             22             44.963859    
    264000   1.0169922     -0.26202374     10648         -2.9245338     -4.4497963      0             -4.4497963      0              0              0              0             -3.337749      -4.4497963      1.5252624      22             22             22             45.127845    
    265000   0.98916742    -0.22882229     10648         -2.9632896     -4.446821       0             -4.446821       0              0              0              0             -3.3241456     -4.446821       1.4835314      22             22             22             45.290673    
    266000   1.0067555     -0.17183977     10648         -2.923563      -4.4334726      0             -4.4334726      0              0              0              0             -3.1945568     -4.4334726      1.5099096      22             22             22             45.453928    
    267000   1.0004639     -0.24704848     10648         -2.9424417     -4.4429153      0             -4.4429153      0              0              0              0             -3.3320406     -4.4429153      1.5004736      22             22             22             45.617831    
    268000   1.0097269     -0.2168123      10648         -2.9304976     -4.4448636      0             -4.4448636      0              0              0              0             -3.2724137     -4.4448636      1.514366       22             22             22             45.782765    
    269000   1.0039242     -0.22826198     10648         -2.9281736     -4.4338369      0             -4.4338369      0              0              0              0             -3.288146      -4.4338369      1.5056632      22             22             22             45.94716     
    270000   1.0090305     -0.28210007     10648         -2.9482838     -4.4616054      0             -4.4616054      0              0              0              0             -3.3931597     -4.4616054      1.5133215      22             22             22             46.111945    
    271000   0.99890205    -0.2950251      10648         -2.9557131     -4.4538443      0             -4.4538443      0              0              0              0             -3.4209719     -4.4538443      1.4981312      22             22             22             46.282063    
    272000   1.0093922     -0.28362102     10648         -2.9595614     -4.4734255      0             -4.4734255      0              0              0              0             -3.4068358     -4.4734255      1.5138641      22             22             22             46.447164    
    273000   1.0120215     -0.22291665     10648         -2.9362438     -4.4540513      0             -4.4540513      0              0              0              0             -3.2877865     -4.4540513      1.5178075      22             22             22             46.611535    
    274000   0.9934724     -0.1995295      10648         -2.9570996     -4.4470874      0             -4.4470874      0              0              0              0             -3.2717604     -4.4470874      1.4899879      22             22             22             46.77736     
    275000   0.98786997    -0.22288446     10648         -2.9642861     -4.4458716      0             -4.4458716      0              0              0              0             -3.3157781     -4.4458716      1.4815855      22             22             22             46.940955    
    276000   1.018939      -0.24008808     10648         -2.9189488     -4.447131       0             -4.447131       0              0              0              0             -3.2975711     -4.447131       1.5281822      22             22             22             47.106668    
    277000   0.98883185    -0.16318887     10648         -2.9558384     -4.4388665      0             -4.4388665      0              0              0              0             -3.2131896     -4.4388665      1.4830281      22             22             22             47.271254    
[...]
    935000   0.99197599    -0.3015307      10648         -2.9808313     -4.4685749      0             -4.4685749      0              0              0              0             -3.4563495     -4.4685749      1.4877436      22             22             22             155.55912    
    936000   0.99490361    -0.22309045     10648         -2.944198      -4.4363324      0             -4.4363324      0              0              0              0             -3.2960148     -4.4363324      1.4921344      22             22             22             155.72402    
    937000   1.0019832     -0.24667023     10648         -2.9468609     -4.4496131      0             -4.4496131      0              0              0              0             -3.3358634     -4.4496131      1.5027522      22             22             22             155.888      
    938000   1.0062654     -0.25262161     10648         -2.9415079     -4.4506824      0             -4.4506824      0              0              0              0             -3.3398957     -4.4506824      1.5091746      22             22             22             156.05098    
    939000   0.99692132    -0.2476776      10648         -2.9383976     -4.4335581      0             -4.4335581      0              0              0              0             -3.3289887     -4.4335581      1.4951605      22             22             22             156.21515    
    940000   1.0208402     -0.21784929     10648         -2.9214894     -4.452523       0             -4.452523       0              0              0              0             -3.2650409     -4.452523       1.5310335      22             22             22             156.38022    
    941000   1.0028949     -0.13785221     10648         -2.9313935     -4.435513       0             -4.435513       0              0              0              0             -3.1487884     -4.435513       1.5041195      22             22             22             156.54808    
    942000   1.0105426     -0.24971018     10648         -2.9356461     -4.4512356      0             -4.4512356      0              0              0              0             -3.3294426     -4.4512356      1.5155895      22             22             22             156.71194    
    943000   1.0065817     -0.24035577     10648         -2.9226176     -4.4322665      0             -4.4322665      0              0              0              0             -3.301662      -4.4322665      1.509649       22             22             22             156.87593    
    944000   0.9915149     -0.18644075     10648         -2.9551262     -4.4421783      0             -4.4421783      0              0              0              0             -3.2491459     -4.4421783      1.4870521      22             22             22             157.04009    
    945000   1.0025906     -0.27756831     10648         -2.9535815     -4.4572447      0             -4.4572447      0              0              0              0             -3.3913107     -4.4572447      1.5036632      22             22             22             157.20382    
    946000   0.99594287    -0.26275162     10648         -2.9617927     -4.4554858      0             -4.4554858      0              0              0              0             -3.3761558     -4.4554858      1.493693       22             22             22             157.36919    
    947000   1.0017791     -0.27233871     10648         -2.9573528     -4.4597988      0             -4.4597988      0              0              0              0             -3.3868348     -4.4597988      1.5024461      22             22             22             157.53382    
    948000   1.0016977     -0.25624952     10648         -2.9486736     -4.4509976      0             -4.4509976      0              0              0              0             -3.3527827     -4.4509976      1.502324       22             22             22             157.69668    
    949000   0.99047877    -0.26985718     10648         -2.9641597     -4.4496578      0             -4.4496578      0              0              0              0             -3.3897283     -4.4496578      1.4854981      22             22             22             157.85933    
    950000   1.0097683     -0.23848958     10648         -2.9386439     -4.453072       0             -4.453072       0              0              0              0             -3.3147453     -4.453072       1.5144281      22             22             22             158.02366    
    951000   1.004256      -0.24158538     10648         -2.9385613     -4.4447222      0             -4.4447222      0              0              0              0             -3.3195449     -4.4447222      1.5061609      22             22             22             158.19188    
    952000   1.0191496     -0.19990262     10648         -2.9125795     -4.4410775      0             -4.4410775      0              0              0              0             -3.2278288     -4.4410775      1.528498       22             22             22             158.3551     
    953000   1.0050169     -0.28724564     10648         -2.9525632     -4.4598654      0             -4.4598654      0              0              0              0             -3.4055537     -4.4598654      1.5073021      22             22             22             158.5178     
    954000   1.0071716     -0.22554301     10648         -2.9349773     -4.445511       0             -4.445511       0              0              0              0             -3.2906619     -4.445511       1.5105337      22             22             22             158.68079    
    955000   0.98858611    -0.19006181     10648         -2.9577744     -4.4404339      0             -4.4404339      0              0              0              0             -3.2575046     -4.4404339      1.4826595      22             22             22             158.84511    
    956000   1.0047694     -0.28116184     10648         -2.9523689     -4.4592999      0             -4.4592999      0              0              0              0             -3.3957651     -4.4592999      1.5069309      22             22             22             159.00868    
    957000   0.99537459    -0.17133316     10648         -2.9471461     -4.4399869      0             -4.4399869      0              0              0              0             -3.2173409     -4.4399869      1.4928408      22             22             22             159.17179    
    958000   0.99670315    -0.23735304     10648         -2.9550086     -4.4498419      0             -4.4498419      0              0              0              0             -3.3293177     -4.4498419      1.4948333      22             22             22             159.33596    
    959000   1.0053842     -0.22587458     10648         -2.9403108     -4.4481637      0             -4.4481637      0              0              0              0             -3.2965182     -4.4481637      1.5078529      22             22             22             159.49997    
    960000   1.0143116     -0.23711703     10648         -2.9338306     -4.4550727      0             -4.4550727      0              0              0              0             -3.3077676     -4.4550727      1.521242       22             22             22             159.66381    
    961000   0.99797184    -0.20171706     10648         -2.945168      -4.4419041      0             -4.4419041      0              0              0              0             -3.2632787     -4.4419041      1.4967361      22             22             22             159.83166    
    962000   0.98222031    -0.22808075     10648         -2.9749214     -4.4480337      0             -4.4480337      0              0              0              0             -3.334608      -4.4480337      1.4731123      22             22             22             159.99621    
    963000   1.003424      -0.24253559     10648         -2.9343595     -4.4392725      0             -4.4392725      0              0              0              0             -3.3168416     -4.4392725      1.5049131      22             22             22             160.15993    
    964000   1.0102803     -0.1991775      10648         -2.9359102     -4.4511062      0             -4.4511062      0              0              0              0             -3.2500159     -4.4511062      1.515196       22             22             22             160.32453    
    965000   1.0038265     -0.30299253     10648         -2.9548368     -4.4603535      0             -4.4603535      0              0              0              0             -3.4326603     -4.4603535      1.5055167      22             22             22             160.48889    
    966000   0.98964485    -0.25114724     10648         -2.9728216     -4.457069       0             -4.457069       0              0              0              0             -3.3688844     -4.457069       1.4842474      22             22             22             160.65503    
    967000   0.99285216    -0.27849835     10648         -2.9681234     -4.4571811      0             -4.4571811      0              0              0              0             -3.4073193     -4.4571811      1.4890577      22             22             22             160.81934    
    968000   0.98909858    -0.20547958     10648         -2.9564518     -4.4398799      0             -4.4398799      0              0              0              0             -3.280496      -4.4398799      1.4834281      22             22             22             160.98471    
    969000   1.0069268     -0.22713961     10648         -2.9349324     -4.4450989      0             -4.4450989      0              0              0              0             -3.2931348     -4.4450989      1.5101665      22             22             22             161.14979    
    970000   1.0143412     -0.25759656     10648         -2.9229784     -4.4442648      0             -4.4442648      0              0              0              0             -3.3292118     -4.4442648      1.5212864      22             22             22             161.31631    
    971000   1.0054573     -0.24592464     10648         -2.938453      -4.4464156      0             -4.4464156      0              0              0              0             -3.3262797     -4.4464156      1.5079626      22             22             22             161.48533    
    972000   1.0010021     -0.20516061     10648         -2.9343055     -4.4355863      0             -4.4355863      0              0              0              0             -3.2578467     -4.4355863      1.5012808      22             22             22             161.64957    
    973000   0.99564779    -0.29842803     10648         -2.9641061     -4.4573566      0             -4.4573566      0              0              0              0             -3.4347313     -4.4573566      1.4932505      22             22             22             161.81322    
    974000   1.0094595     -0.24572522     10648         -2.9376697     -4.4516347      0             -4.4516347      0              0              0              0             -3.3251818     -4.4516347      1.5139651      22             22             22             161.97821    
    975000   1.0219206     -0.25475256     10648         -2.9252904     -4.4579443      0             -4.4579443      0              0              0              0             -3.3270388     -4.4579443      1.5326539      22             22             22             162.14203    
    976000   0.99375285    -0.26873612     10648         -2.9564598     -4.4468683      0             -4.4468683      0              0              0              0             -3.3802605     -4.4468683      1.4904085      22             22             22             162.30642    
    977000   0.9998928     -0.29208314     10648         -2.9613367     -4.4609538      0             -4.4609538      0              0              0              0             -3.421956      -4.4609538      1.4996171      22             22             22             162.47021    
    978000   0.99682209    -0.22274469     10648         -2.9505793     -4.445591       0             -4.445591       0              0              0              0             -3.3018509     -4.445591       1.4950117      22             22             22             162.63563    
    979000   0.99022512    -0.19849494     10648         -2.9494141     -4.4345318      0             -4.4345318      0              0              0              0             -3.2624434     -4.4345318      1.4851177      22             22             22             162.79966    
    980000   1.0082564     -0.22661832     10648         -2.9336028     -4.4457634      0             -4.4457634      0              0              0              0             -3.2909831     -4.4457634      1.5121606      22             22             22             162.96317    
    981000   0.99394407    -0.19276868     10648         -2.9358645     -4.4265597      0             -4.4265597      0              0              0              0             -3.2398634     -4.4265597      1.4906953      22             22             22             163.13018    
    982000   0.99384707    -0.18816297     10648         -2.9469866     -4.4375364      0             -4.4375364      0              0              0              0             -3.2437222     -4.4375364      1.4905498      22             22             22             163.29347    
    983000   1.0050582     -0.2386818      10648         -2.9385862     -4.4459503      0             -4.4459503      0              0              0              0             -3.3149908     -4.4459503      1.5073641      22             22             22             163.4577     
    984000   1.0133121     -0.087629727    10648         -2.8924776     -4.4122207      0             -4.4122207      0              0              0              0             -3.030671      -4.4122207      1.5197431      22             22             22             163.62223    
    985000   1.0113379     -0.20638867     10648         -2.9309943     -4.4477766      0             -4.4477766      0              0              0              0             -3.2564722     -4.4477766      1.5167822      22             22             22             163.7861     
    986000   1.008176      -0.26429        10648         -2.9342933     -4.4463334      0             -4.4463334      0              0              0              0             -3.3510824     -4.4463334      1.51204        22             22             22             163.94969    
    987000   1.0016266     -0.19837724     10648         -2.953178      -4.4553953      0             -4.4553953      0              0              0              0             -3.2660217     -4.4553953      1.5022173      22             22             22             164.1123     
    988000   0.99334974    -0.15580971     10648         -2.9408769     -4.4306809      0             -4.4306809      0              0              0              0             -3.1865911     -4.4306809      1.4898039      22             22             22             164.27538    
    989000   0.99614184    -0.24015303     10648         -2.9515211     -4.4455126      0             -4.4455126      0              0              0              0             -3.3302459     -4.4455126      1.4939915      22             22             22             164.43936    
    990000   0.99472511    -0.24941        10648         -2.9562117     -4.4480784      0             -4.4480784      0              0              0              0             -3.3495348     -4.4480784      1.4918667      22             22             22             164.60359    
    991000   0.97766899    -0.24709216     10648         -2.9844354     -4.4507217      0             -4.4507217      0              0              0              0             -3.3741032     -4.4507217      1.4662863      22             22             22             164.77054    
    992000   0.99047433    -0.2490009      10648         -2.9704067     -4.4558982      0             -4.4558982      0              0              0              0             -3.3630847     -4.4558982      1.4854914      22             22             22             164.93463    
    993000   0.98658543    -0.2822407      10648         -2.973402      -4.4530609      0             -4.4530609      0              0              0              0             -3.4184996     -4.4530609      1.479659       22             22             22             165.0979     
    994000   0.99453255    -0.22371286     10648         -2.9500107     -4.4415886      0             -4.4415886      0              0              0              0             -3.3028091     -4.4415886      1.4915779      22             22             22             165.26179    
    995000   1.0013356     -0.23606064     10648         -2.9374675     -4.4392484      0             -4.4392484      0              0              0              0             -3.3097385     -4.4392484      1.5017809      22             22             22             165.42559    
    996000   1.0156484     -0.21406054     10648         -2.9316473     -4.4548942      0             -4.4548942      0              0              0              0             -3.2692238     -4.4548942      1.5232469      22             22             22             165.58857    
    997000   1.009582      -0.29354693     10648         -2.9478737     -4.4620224      0             -4.4620224      0              0              0              0             -3.4108014     -4.4620224      1.5141487      22             22             22             165.75136    
    998000   1.0158355     -0.21490078     10648         -2.9234999     -4.4470275      0             -4.4470275      0              0              0              0             -3.2624015     -4.4470275      1.5235276      22             22             22             165.9147     
    999000   0.99832523    -0.22326767     10648         -2.956544      -4.4538101      0             -4.4538101      0              0              0              0             -3.3086403     -4.4538101      1.4972661      22             22             22             166.0789     
   1000000   0.99011257    -0.20921003     10648         -2.9534487     -4.4383976      0             -4.4383976      0              0              0              0             -3.2833759     -4.4383976      1.4849489      22             22             22             166.24248    
Loop time of 166.246 on 128 procs for 1000000 steps with 6752 atoms

Performance: 1559135.440 tau/day, 6015.183 timesteps/s, 40.615 Matom-step/s
99.5% CPU use with 32 MPI tasks x 4 OpenMP threads

MPI task timing breakdown:
Section |  min time  |  avg time  |  max time  |%varavg| %total
---------------------------------------------------------------
Pair    | 56.159     | 57.678     | 59.545     |  11.9 | 34.69
Bond    | 0.037356   | 0.038265   | 0.042197   |   0.7 |  0.02
Neigh   | 22.163     | 22.395     | 22.807     |   3.1 | 13.47
Comm    | 70.761     | 72.496     | 74.309     |  10.8 | 43.61
Output  | 1.191      | 1.1928     | 1.2448     |   0.9 |  0.72
Modify  | 8.1152     | 8.7166     | 9.7055     |  17.6 |  5.24
Other   |            | 3.729      |            |       |  2.24

Nlocal:            211 ave         223 max         196 min
Histogram: 1 1 4 2 6 4 4 4 4 2
Nghost:        1084.34 ave        1110 max        1058 min
Histogram: 3 1 1 5 4 7 5 1 4 1
Neighs:        6039.97 ave        6472 max        5462 min
Histogram: 2 0 2 4 6 3 3 5 4 3

Total # of neighbors = 193279
Ave neighs/atom = 28.625444
Ave special neighs/atom = 0
Neighbor list builds = 87840
Dangerous builds = 0
System init for write_data ...
Generated 0 of 0 mixed pair_coeff terms from arithmetic mixing rule
Total wall time: 0:02:46
