ITEM: TIMESTEP
28000
ITEM: NUMBER OF ATOMS
6752
ITEM: BOX BOUNDS pp pp pp
0.0000000000000000e+00 2.2000000000000000e+01
0.0000000000000000e+00 2.2000000000000000e+01
0.0000000000000000e+00 2.2000000000000000e+01
ITEM: ATOMS id mol type q mass xu yu zu
1 1 1 0 1 -4.26242 -8.68991 3.59725
2 1 1 0 1 -2.25039 6.76458 -4.10112
3 1 1 0 1 -3.54936 -0.441674 0.695364
4 1 1 0 1 -9.38899 1.58363 4.33936
5 1 1 0 1 3.91026 8.83173 2.0241
6 1 1 0 1 -15.69 -2.28064 7.35248
7 1 1 0 1 5.80133 8.08345 8.69157
8 1 1 0 1 3.53571 -5.69939 14.283
9 1 1 0 1 0.393884 -1.71844 12.6177
10 1 1 0 1 -8.91794 -3.73137 13.4692
11 1 1 0 1 1.97515 -5.82335 -0.823035
12 1 1 0 1 -5.9758 -5.97346 13.0905
13 1 1 0 1 7.18473 4.944 12.5893
14 1 1 0 1 -3.11183 10.4707 9.2585
15 1 1 0 1 -7.41615 3.3854 10.8643
16 1 1 0 1 -4.62749 -6.73794 14.9134
17 1 1 0 1 -0.413962 -3.46102 15.7038
18 1 1 0 1 -7.63934 -9.09904 23.3477
19 1 1 0 1 -4.27007 2.58007 17.3633
20 1 1 0 1 -8.34448 3.95717 20.8022
21 1 1 0 1 -7.95135 3.78642 16.3206
22 1 1 0 1 1.42037 8.7154 20.6615
23 1 1 0 1 -11.5777 -1.4358 8.632
24 1 1 0 1 -10.4732 7.76172 1.55456
25 1 1 0 1 -0.718044 2.1354 -7.83409
26 1 1 0 1 0.779741 -4.49308 4.87355
27 1 1 0 1 -5.30934 -1.22712 10.5397
28 1 1 0 1 -3.07787 3.20309 -1.45597
29 1 1 0 1 -3.21976 -3.65397 14.3062
30 1 1 0 1 -4.01227 2.4695 19.526
31 1 1 0 1 -4.74952 9.75374 8.54815
32 1 1 0 1 -3.90226 -4.62136 6.21727
33 1 1 0 1 -8.60939 -1.94792 10.6157
34 1 1 0 1 -5.15366 5.075 14.109
35 1 1 0 1 1.86205 6.32262 13.3212
36 1 1 0 1 4.76434 1.51469 8.45096
37 1 1 0 1 -2.71462 1.01144 16.1049
38 1 1 0 1 1.96656 1.40372 23.2763
39 1 1 0 1 -1.99624 6.28999 6.88713
40 1 1 0 1 -3.34372 5.53639 16.8024
41 1 1 0 1 -5.21309 -3.45407 15.6439
42 1 1 0 1 -4.67134 0.920166 24.9291
43 1 1 0 1 -2.93958 8.27178 15.2945
44 1 1 0 1 -5.39953 7.80029 15.2105
45 1 1 0 1 -12.1298 6.17473 1.6445
46 1 1 0 1 -6.23216 1.50905 7.85889
47 1 1 0 1 -4.76336 -0.0372096 3.19142
48 1 1 0 1 -6.82962 13.2061 -0.629405
49 1 1 0 1 -9.40226 7.14984 1.2008
50 1 1 0 1 -5.12012 4.69379 -2.14215
51 1 1 0 1 0.568351 1.4842 3.07817
52 1 1 0 1 0.703659 4.13273 14.9626
53 1 1 0 1 -3.90927 -1.66793 3.46136
54 1 1 0 1 -6.18127 -2.20532 20.0455
55 1 1 0 1 -1.99245 -0.677026 8.53705
56 1 1 0 1 -3.14969 -0.197652 6.31627
57 1 1 0 1 -6.20804 11.3343 17.4669
58 1 1 0 1 -4.54943 11.114 11.4437
59 1 1 0 1 -4.78462 3.72178 8.57139
60 1 1 0 1 -0.52009 0.92559 24.7622
61 1 1 0 1 -5.08168 8.40584 14.2831
62 1 1 0 1 2.55638 3.85077 24.4248
63 1 1 0 1 1.19435 9.23297 4.79771
64 1 1 0 1 -2.07892 -0.186983 13.5373
65 1 1 0 1 -11.9579 -2.45271 19.6202
66 1 1 0 1 -3.67193 5.99203 24.9686
67 1 1 0 1 -5.58946 -6.68846 -4.54673
68 1 1 0 1 -6.02656 4.72657 -10.6708
69 1 1 0 1 -3.91712 6.58209 1.45986
70 1 1 0 1 0.0194589 11.3984 2.11072
71 1 1 0 1 0.0310614 0.807025 4.98164
72 1 1 0 1 -14.1167 5.36682 0.64349
73 1 1 0 1 -0.136848 1.72535 4.18151
74 1 1 0 1 -3.2332 1.88898 16.2299
75 1 1 0 1 -0.383679 1.06009 7.1906
76 1 1 0 1 -0.581052 -2.85581 10.9142
77 1 1 0 1 -7.37182 -2.96429 9.63328
78 1 1 0 1 -0.668058 4.33961 10.9808
79 1 1 0 1 -1.19382 4.85715 13.0492
80 1 1 0 1 0.298736 -4.42934 10.6003
81 1 1 0 1 -1.80707 8.83143 17.2936
82 1 1 0 1 -2.62965 -5.23938 11.6448
83 1 1 0 1 -5.29946 -0.307779 17.6707
84 1 1 0 1 3.62478 4.64893 16.5969
85 1 1 0 1 -4.41812 -2.55858 24.7606
86 1 1 0 1 -4.71443 -4.52003 17.3146
87 1 1 0 1 -0.734668 6.79726 21.3138
88 1 1 0 1 -1.74507 6.66766 16.7431
89 1 1 0 1 -5.63979 10.4574 1.85558
90 1 1 0 1 -0.108748 10.6627 8.77646
91 1 1 0 1 -1.90937 -1.31979 10.4781
92 1 1 0 1 1.03797 7.22601 2.60787
93 1 1 0 1 0.431448 8.23715 3.07043
94 1 1 0 1 -1.56658 -5.20441 2.50145
95 1 1 0 1 -1.88458 9.46603 7.55904
96 1 1 0 1 1.44309 2.86368 2.09223
97 1 1 0 1 -6.47397 9.18114 10.3389
98 1 1 0 1 5.30048 6.92757 7.25058
99 1 1 0 1 -0.92791 8.71275 4.67752
100 1 1 0 1 0.964394 1.33269 2.08821
101 1 1 0 1 -5.66649 2.80731 7.45182
102 1 1 0 1 -4.49238 3.75924 9.9481
103 1 1 0 1 -8.04071 7.53088 11.9309
104 1 1 0 1 -3.31943 15.0632 13.063
105 1 1 0 1 -0.576809 3.21124 2.54856
106 1 1 0 1 -0.313216 4.39505 20.7049
107 1 1 0 1 -7.74157 7.17449 15.6445
108 1 1 0 1 2.59559 7.58208 13.8531
109 1 1 0 1 -10.8352 4.90351 24.0285
110 1 1 0 1 -8.10351 4.99106 25.6792
111 1 1 0 1 -6.8989 1.97863 3.43679
112 1 1 0 1 -2.83646 9.40751 -5.04402
113 1 1 0 1 -2.65423 7.06703 15.8342
114 1 1 0 1 2.98524 7.64897 5.11316
115 1 1 0 1 -6.7146 10.7567 0.294118
116 1 1 0 1 -0.84815 13.5665 10.7386
117 1 1 0 1 -4.25763 9.34426 2.87108
118 1 1 0 1 -2.50339 2.49639 1.89824
119 1 1 0 1 -6.12683 6.11625 10.8004
120 1 1 0 1 -2.76671 2.94437 7.40221
121 1 1 0 1 -1.3523 2.45434 2.5273
122 1 1 0 1 1.60135 3.12878 5.62164
123 1 1 0 1 -3.4532 3.17054 10.9994
124 1 1 0 1 -8.76721 10.2004 15.4423
125 1 1 0 1 -8.96435 7.70744 4.64417
126 1 1 0 1 -5.54927 5.34691 24.4692
127 1 1 0 1 -0.408275 9.00068 15.5148
128 1 1 0 1 -9.8475 8.43965 12.3809
129 1 1 0 1 -2.83387 6.1054 26.7452
130 1 1 0 1 -3.87232 7.42371 13.0632
131 1 1 0 1 -13.7278 2.30228 6.89206
132 1 1 0 1 -5.9043 3.79519 27.5677
133 1 1 0 1 2.19394 6.47617 3.45312
134 1 1 0 1 -7.13178 8.14919 8.77326
135 1 1 0 1 -5.02309 0.356919 4.93281
136 1 1 0 1 0.154127 16.4069 3.17192
137 1 1 0 1 -8.54169 5.02549 8.89711
138 1 1 0 1 -10.083 10.604 17.5965
139 1 1 0 1 4.39438 5.02315 3.81641
140 1 1 0 1 -10.826 11.2721 -0.262108
141 1 1 0 1 4.201 5.29525 0.906019
142 1 1 0 1 -4.91805 2.11991 7.73295
143 1 1 0 1 -1.82803 0.10721 12.4779
144 1 1 0 1 0.10218 0.75349 9.56893
145 1 1 0 1 -8.35747 9.30321 18.9623
146 1 1 0 1 -9.47202 11.8132 20.8262
147 1 1 0 1 -1.4206 25.2152 15.2691
148 1 1 0 1 -5.44415 14.0223 11.5674
149 1 1 0 1 -11.079 1.59857 19.7261
150 1 1 0 1 -8.55697 6.26482 2.77842
151 1 1 0 1 -5.67344 6.23459 19.2613
152 1 1 0 1 -3.57708 -0.466093 18.9177
153 1 1 0 1 -4.00619 11.9292 21.6093
154 1 1 0 1 -5.41557 4.93961 23.357
155 1 1 0 1 -4.44747 7.80047 -6.01092
156 1 1 0 1 -1.28282 5.91191 -2.41959
157 1 1 0 1 -6.16946 12.3925 4.1084
158 1 1 0 1 -4.57046 16.7259 2.83017
159 1 1 0 1 -5.59852 6.16504 0.234669
160 1 1 0 1 -6.40062 4.21456 3.22959
161 1 1 0 1 -0.980202 12.5631 3.81846
162 1 1 0 1 -5.2341 8.99692 7.72315
163 1 1 0 1 -0.271784 7.44284 3.1116
164 1 1 0 1 -8.15131 8.02482 9.55866
165 1 1 0 1 -2.08244 2.08794 14.0177
166 1 1 0 1 -3.85545 14.1406 23.8447
167 1 1 0 1 -8.15926 17.4262 17.428
168 1 1 0 1 -8.65268 7.64561 22.1018
169 1 1 0 1 -10.2766 14.8484 13.528
170 1 1 0 1 4.08901 9.23802 20.7582
171 1 1 0 1 -5.06704 13.4422 24.5679
172 1 1 0 1 0.0241513 9.11731 19.6151
173 1 1 0 1 -3.14003 2.46619 17.3916
174 1 1 0 1 5.53933 6.85521 20.6346
175 1 1 0 1 -4.41759 7.37272 18.5298
176 1 1 0 1 0.942581 5.05973 23.9518
177 1 1 0 1 -5.86366 4.71211 -0.767199
178 1 1 0 1 0.123935 18.3754 7.03263
179 1 1 0 1 -7.7057 15.5628 3.39666
180 1 1 0 1 -1.62757 18.8273 -1.63284
181 1 1 0 1 -9.80373 14.8488 2.632
182 1 1 0 1 -8.37581 14.385 5.29028
183 1 1 0 1 -4.87772 18.4149 1.37866
184 1 1 0 1 -2.94461 11.3112 7.63398
185 1 1 0 1 -10.0866 0.786776 9.48926
186 1 1 0 1 -14.4251 15.5813 12.1271
187 1 1 0 1 -8.63551 15.6994 12.6526
188 1 1 0 1 -0.53389 -0.96412 12.4009
189 1 1 0 1 -6.33266 13.7215 19.471
190 1 1 0 1 -6.59194 3.41565 15.3773
191 1 1 0 1 -4.76254 8.78084 25.5024
192 1 1 0 1 -3.70066 6.69267 11.7629
193 1 1 0 1 -1.22891 3.76346 20.5399
194 1 1 0 1 6.56202 10.1246 18.0632
195 1 1 0 1 -6.84785 7.54474 13.2108
196 1 1 0 1 -1.58175 8.20721 21.0612
197 1 1 0 1 -4.85077 4.85225 17.2708
198 1 1 0 1 8.08746 6.60429 25.6741
199 1 1 0 1 -0.626069 12.2552 1.89482
200 1 1 0 1 3.647 7.33898 8.0244
201 1 1 0 1 -2.71348 18.3888 -2.6873
202 1 1 0 1 -1.93741 1.6299 4.31025
203 1 1 0 1 -6.39674 9.53905 5.0848
204 1 1 0 1 0.307088 4.87116 15.6212
205 1 1 0 1 5.07285 4.19898 0.51499
206 1 1 0 1 1.04581 8.63198 5.71487
207 1 1 0 1 -2.78321 6.985 1.92911
208 1 1 0 1 -1.94508 3.52605 8.06655
209 1 1 0 1 -1.05563 1.63224 1.58404
210 1 1 0 1 -6.45125 6.69749 6.92744
211 1 1 0 1 -2.56888 8.06436 5.80594
212 1 1 0 1 -12.5791 10.0963 13.2862
213 1 1 0 1 -5.28591 12.8767 25.5495
214 1 1 0 1 -15.8353 23.5342 17.57
215 1 1 0 1 -6.85062 15.8996 13.8241
216 1 1 0 1 -9.45008 13.2541 18.4749
217 1 1 0 1 -10.2484 15.302 27.8266
218 1 1 0 1 1.87476 6.21744 21.8395
219 1 1 0 1 5.04407 11.1951 26.2947
220 1 1 0 1 4.10768 19.8436 21.6999
221 1 1 0 1 12.833 8.47547 -1.48298
222 1 1 0 1 -6.28939 15.2791 -2.0829
223 1 1 0 1 -11.5614 10.5663 1.42134
224 1 1 0 1 -5.78176 9.31336 -5.7036
225 1 1 0 1 -9.40556 19.5723 6.0628
226 1 1 0 1 -9.87838 10.7735 7.95907
227 1 1 0 1 -10.9316 14.9539 9.03289
228 1 1 0 1 -8.81775 16.7173 3.11192
229 1 1 0 1 7.11908 10.2048 12.6483
230 1 1 0 1 -4.01048 14.8263 10.4709
231 1 1 0 1 -2.60337 8.41847 11.9687
232 1 1 0 1 -0.0297974 -0.578382 11.5128
233 1 1 0 1 -1.55386 9.88867 15.6506
234 1 1 0 1 -10.2699 14.0471 14.5663
235 1 1 0 1 -7.02986 10.5341 16.1027
236 1 1 0 1 -6.23145 8.55076 12.0473
237 1 1 0 1 -11.5379 14.8387 17.1563
238 1 1 0 1 -7.31902 11.456 14.6313
239 1 1 0 1 -2.06684 9.46994 14.4783
240 1 1 0 1 -5.90316 13.4792 8.73004
241 1 1 0 1 -3.81009 6.15801 18.8695
242 1 1 0 1 -2.62946 0.02506 20.7683
243 1 1 0 1 -3.92192 11.7372 -1.81415
244 1 1 0 1 -2.44769 10.012 -4.2
245 1 1 0 1 -5.02484 16.9679 1.61525
246 1 1 0 1 -2.86252 10.5319 0.713299
247 1 1 0 1 -5.5771 12.3321 7.67144
248 1 1 0 1 -0.760837 -3.23214 7.6459
249 1 1 0 1 -8.78408 11.4354 5.51372
250 1 1 0 1 0.11761 6.10272 3.34842
251 1 1 0 1 -8.1855 5.75599 5.10967
252 1 1 0 1 -2.13611 2.94194 6.08565
253 1 1 0 1 1.20354 0.910827 18.1809
254 1 1 0 1 -0.0343269 11.2405 20.3215
255 1 1 0 1 -9.67789 2.86028 8.70706
256 1 1 0 1 -9.76502 18.1687 8.80299
257 1 1 0 1 2.39362 15.6784 17.1117
258 1 1 0 1 2.22502 12.6712 19.1303
259 1 1 0 1 -5.79499 11.9757 20.9039
260 1 1 0 1 -1.65073 12.1672 19.0786
261 1 1 0 1 -4.13579 9.79782 14.4857
262 1 1 0 1 -7.19183 10.237 19.2834
263 1 1 0 1 5.3376 15.2863 19.3666
264 1 1 0 1 -0.588728 17.6137 23.4118
265 1 1 0 1 -4.25661 13.9904 0.722162
266 1 1 0 1 7.73223 22.5281 5.3213
267 1 1 0 1 0.416902 14.9489 8.85865
268 1 1 0 1 -5.0354 3.04816 -1.48771
269 1 1 0 1 -1.33069 8.77381 9.45856
270 1 1 0 1 -3.56163 14.786 -0.646672
271 1 1 0 1 -3.38613 8.74737 6.85916
272 1 1 0 1 -8.01656 7.32924 14.5025
273 1 1 0 1 -1.50723 15.7442 8.61027
274 1 1 0 1 -11.4576 9.20687 7.25177
275 1 1 0 1 -8.47938 -1.1359 12.4024
276 1 1 0 1 1.76518 16.3466 9.58419
277 1 1 0 1 -7.23504 8.3084 12.6467
278 1 1 0 1 -0.127961 12.8999 19.2226
279 1 1 0 1 -4.15385 18.3636 13.0425
280 1 1 0 1 -4.14432 13.348 8.49519
281 1 1 0 1 -0.661801 11.5552 25.0951
282 1 1 0 1 -3.89797 13.003 10.6532
283 1 1 0 1 -1.23189 12.6505 16.2778
284 1 1 0 1 -5.68692 17.141 13.4983
285 1 1 0 1 -6.83168 3.01007 16.6632
286 1 1 0 1 -5.35087 9.0767 22.38
287 1 1 0 1 -7.68143 23.9367 5.59561
288 1 1 0 1 -3.30851 15.1675 -2.04594
289 1 1 0 1 -10.5581 1.91272 6.1316
290 1 1 0 1 -3.65381 8.41788 5.09357
291 1 1 0 1 -7.72525 0.706336 11.0214
292 1 1 0 1 -7.22324 13.444 9.7961
293 1 1 0 1 1.88981 8.39651 7.86034
294 1 1 0 1 -1.58209 10.3844 8.00984
295 1 1 0 1 -4.67412 7.49033 6.50926
296 1 1 0 1 -2.0129 12.5281 14.5322
297 1 1 0 1 -9.18455 12.0482 4.34201
298 1 1 0 1 -7.23489 5.31994 19.6889
299 1 1 0 1 2.87432 16.9911 13.5885
300 1 1 0 1 1.35664 19.9766 18.534
301 1 1 0 1 0.823967 17.96 18.9985
302 1 1 0 1 -2.10422 14.5942 13.2748
303 1 1 0 1 -12.5895 15.0317 6.93833
304 1 1 0 1 1.7349 4.20666 10.3752
305 1 1 0 1 8.16029 11.1107 22.1577
306 1 1 0 1 -3.2936 14.0904 22.3954
307 1 1 0 1 2.20157 16.5379 22.6011
308 1 1 0 1 4.97275 28.2562 25.5227
309 1 1 0 1 0.65747 12.3975 4.78014
310 1 1 0 1 2.01593 11.6589 7.72219
311 1 1 0 1 -13.1215 11.7628 -4.56889
312 1 1 0 1 -6.60754 5.57323 6.55829
313 1 1 0 1 -12.4875 14.0561 3.27754
314 1 1 0 1 -3.02213 9.41265 0.806529
315 1 1 0 1 3.47773 10.878 4.44719
316 1 1 0 1 -10.5355 21.5301 8.80395
317 1 1 0 1 -2.44484 14.9119 9.28695
318 1 1 0 1 -4.63192 19.1489 10.8771
319 1 1 0 1 -4.95098 10.9255 4.96339
320 1 1 0 1 3.9702 19.4265 5.16564
321 1 1 0 1 -2.15206 14.4743 16.2267
322 1 1 0 1 -2.12034 12.9331 21.5045
323 1 1 0 1 -4.31192 12.9047 5.72759
324 1 1 0 1 -1.03874 10.8301 3.78001
325 1 1 0 1 0.815732 9.89926 9.1717
326 1 1 0 1 -2.13866 15.4679 16.0686
327 1 1 0 1 -8.68795 11.8704 18.5627
328 1 1 0 1 1.02339 18.4078 23.9116
329 1 1 0 1 -0.635185 16.5264 23.9721
330 1 1 0 1 4.78565 17.719 22.7383
331 1 1 0 1 -8.23834 12.8551 10.806
332 1 1 0 1 -1.06402 19.8355 4.36403
333 1 1 0 1 2.36781 6.79213 5.41544
334 1 1 0 1 -6.01701 17.7797 -0.0252287
335 1 1 0 1 2.90626 11.5004 10.876
336 1 1 0 1 -8.68497 15.2225 1.56093
337 1 1 0 1 -4.98873 11.7059 3.23301
338 1 1 0 1 -6.30622 11.1077 5.80945
339 1 1 0 1 -10.5903 11.002 7.16245
340 1 1 0 1 -4.24732 7.45119 11.0703
341 1 1 0 1 -2.11375 10.82 7.19465
342 1 1 0 1 0.0148534 17.3515 7.1101
343 1 1 0 1 3.72132 6.85039 4.0444
344 1 1 0 1 -8.10235 8.85593 12.3693
345 1 1 0 1 -5.4629 19.8315 11.0859
346 1 1 0 1 -2.37462 18.0788 20.8881
347 1 1 0 1 -0.409907 21.1304 15.3024
348 1 1 0 1 -4.64936 14.18 15.4162
349 1 1 0 1 0.897056 22.0214 14.3665
350 1 1 0 1 -3.69846 13.2277 15.8659
351 1 1 0 1 -10.1228 21.0004 21.6678
352 1 1 0 1 1.09357 17.4885 29.0895
353 1 1 0 1 -10.8091 17.601 -4.93538
354 1 1 0 1 3.17079 16.6866 1.59493
355 1 1 0 1 -4.85877 10.4674 4.04636
356 1 1 0 1 -7.20737 11.3926 5.50475
357 1 1 0 1 1.6674 17.5107 1.24229
358 1 1 0 1 -5.00966 17.1051 5.89267
359 1 1 0 1 -9.30463 13.0624 16.0132
360 1 1 0 1 0.139901 10.9103 3.04134
361 1 1 0 1 0.385593 16.4892 11.0571
362 1 1 0 1 -1.86866 13.5274 10.538
363 1 1 0 1 -0.530032 11.9031 10.7982
364 1 1 0 1 4.57585 7.61849 8.87968
365 1 1 0 1 -2.50391 0.762172 6.29115
366 1 1 0 1 -3.07671 11.9891 12.0015
367 1 1 0 1 -0.899396 8.07191 13.0797
368 1 1 0 1 -4.32817 18.8312 14.8846
369 1 1 0 1 -2.77443 14.7333 10.4075
370 1 1 0 1 -1.68432 2.44156 7.35099
371 1 1 0 1 -11.3665 19.2386 26.362
372 1 1 0 1 -2.48035 19.1898 20.9888
373 1 1 0 1 -5.59598 12.6822 14.5438
374 1 1 0 1 0.181859 12.2669 25.7786
375 1 1 0 1 -8.35628 2.48736 10.2373
376 1 1 0 1 -7.65915 16.136 0.950978
377 1 1 0 1 -11.6364 6.41803 0.696764
378 1 1 0 1 -9.89761 15.3455 9.39178
379 1 1 0 1 1.48919 15.0308 -5.24715
380 1 1 0 1 -1.86072 14.9627 3.81615
381 1 1 0 1 -7.70807 14.5047 7.65342
382 1 1 0 1 -15.6405 15.8952 17.1018
383 1 1 0 1 -3.57757 22.2077 10.4016
384 1 1 0 1 -0.767797 10.7511 12.4011
385 1 1 0 1 -8.83556 17.616 6.02821
386 1 1 0 1 -4.28173 12.118 10.9667
387 1 1 0 1 -5.32314 13.8754 18.7879
388 1 1 0 1 -6.85408 14.6826 14.7836
389 1 1 0 1 -3.87656 20.5953 17.5427
390 1 1 0 1 0.118881 14.0058 19.3382
391 1 1 0 1 -5.13151 22.0597 19.1825
392 1 1 0 1 -8.25274 18.5423 8.01109
393 1 1 0 1 -4.13113 9.45298 12.3813
394 1 1 0 1 -2.03119 17.0437 22.4516
395 1 1 0 1 -12.4689 15.8018 10.9492
396 1 1 0 1 -1.02519 5.38706 24.0059
397 1 1 0 1 -3.61606 18.098 -1.23673
398 1 1 0 1 -2.74372 26.2762 -0.430029
399 1 1 0 1 -1.64698 13.4664 1.77975
400 1 1 0 1 -9.0332 12.4018 1.74722
401 1 1 0 1 -2.59194 7.75804 12.9177
402 1 1 0 1 -4.69483 11.4681 13.3408
403 1 1 0 1 0.0282452 14.4068 10.9039
404 1 1 0 1 -2.84691 29.9205 4.03895
405 1 1 0 1 -10.8081 14.327 8.12928
406 1 1 0 1 -8.07764 18.1904 9.94406
407 1 1 0 1 -2.97646 17.0217 7.05847
408 1 1 0 1 -8.73825 21.2846 14.8378
409 1 1 0 1 -6.26894 11.6023 12.5583
410 1 1 0 1 -6.33547 2.6365 6.35061
411 1 1 0 1 4.92718 18.1367 7.41175
412 1 1 0 1 -14.1868 12.439 3.78176
413 1 1 0 1 -12.9535 13.5824 17.1782
414 1 1 0 1 -5.07028 10.6543 19.0742
415 1 1 0 1 0.520462 15.3594 28.8575
416 1 1 0 1 -4.30733 15.8938 29.7652
417 1 1 0 1 1.32925 22.1951 24.5178
418 1 1 0 1 0.316822 16.147 27.0254
419 1 1 0 1 -9.0419 18.0607 2.82973
420 1 1 0 1 -3.33166 25.5001 19.2739
421 1 1 0 1 -5.53695 15.9614 8.11121
422 1 1 0 1 -4.84378 3.8133 4.77697
423 1 1 0 1 0.437167 31.203 10.6107
424 1 1 0 1 -1.75769 15.9435 15.1989
425 1 1 0 1 -3.62703 12.7272 1.0376
426 1 1 0 1 -7.85308 17.6296 -6.01994
427 1 1 0 1 -3.97175 22.5195 5.50086
428 1 1 0 1 2.74948 14.1976 0.0668797
429 1 1 0 1 -7.44976 25.6598 6.85058
430 1 1 0 1 0.761131 15.63 8.16169
431 1 1 0 1 -9.80327 12.8377 13.1942
432 1 1 0 1 -1.77342 25.4482 6.89714
433 1 1 0 1 -3.79757 20.3553 14.5713
434 1 1 0 1 -5.61106 7.06651 10.7099
435 1 1 0 1 -5.83462 13.6815 21.9173
436 1 1 0 1 -6.45962 12.3156 11.2702
437 1 1 0 1 -0.447899 21.2472 18.0213
438 1 1 0 1 -8.14227 15.6832 16.0513
439 1 1 0 1 -3.966 21.3052 20.9941
440 1 1 0 1 -6.56047 13.9012 24.6409
441 1 1 0 1 -5.07148 15.0705 -1.20782
442 1 1 0 1 -6.4401 19.0197 5.49337
443 1 1 0 1 -1.56908 14.5661 -2.0953
444 1 1 0 1 -1.0483 24.3378 4.45369
445 1 1 0 1 -3.7026 20.6797 1.18478
446 1 1 0 1 3.42048 8.24226 13.0706
447 1 1 0 1 -0.178556 12.3908 6.3616
448 1 1 0 1 -3.93785 14.5711 7.55172
449 1 1 0 1 0.836822 18.326 11.2848
450 1 1 0 1 -4.52785 10.0324 21.0006
451 1 1 0 1 -9.48632 14.1062 12.6534
452 1 1 0 1 -6.4605 21.3435 19.5661
453 1 1 0 1 -3.50576 15.3505 15.4518
454 1 1 0 1 2.70571 23.555 11.6759
455 1 1 0 1 -3.37478 2.88666 1.64725
456 1 1 0 1 -4.28915 19.6482 15.5924
457 1 1 0 1 -6.77051 17.8608 19.6349
458 1 1 0 1 -10.9287 15.3523 15.7157
459 1 1 0 1 -9.95613 17.4923 16.177
460 1 1 0 1 -2.24715 19.3544 19.7557
461 1 1 0 1 1.75076 16.8512 12.1529
462 1 1 0 1 9.81995 23.6626 18.5528
463 1 1 0 1 0.380777 20.8533 -0.751194
464 1 1 0 1 -4.33944 22.8698 10.7802
465 1 1 0 1 8.45856 25.2105 -0.31842
466 1 1 0 1 -1.77432 27.8853 -0.658154
467 1 1 0 1 -6.75161 21.3873 12.2314
468 1 1 0 1 -3.27134 23.2642 5.16226
469 1 1 0 1 0.564099 16.2892 15.2564
470 1 1 0 1 0.523711 18.604 12.9865
471 1 1 0 1 -0.241599 8.84689 5.73144
472 1 1 0 1 4.74993 31.0794 15.2803
473 1 1 0 1 -5.74427 19.445 9.9565
474 1 1 0 1 0.837337 14.3288 13.3714
475 1 1 0 1 0.0627159 17.0392 16.6929
476 1 1 0 1 5.05813 28.9211 21.9064
477 1 1 0 1 2.42149 22.3841 13.2015
478 1 1 0 1 4.63613 23.959 19.0199
479 1 1 0 1 -5.47758 32.9621 6.43771
480 1 1 0 1 2.79545 21.5829 17.0202
481 1 1 0 1 -0.541559 20.2159 17.3698
482 1 1 0 1 -3.05448 32.5575 16.5437
483 1 1 0 1 3.59896 18.9532 25.7371
484 1 1 0 1 -3.99013 18.5296 22.0248
485 1 1 0 1 -3.80172 -9.53537 2.41675
486 1 1 0 1 -3.15674 8.43794 -5.55021
487 1 1 0 1 -2.84197 0.682909 2.75075
488 1 1 0 1 -5.0319 -2.97487 5.12877
489 1 1 0 1 2.05944 2.92531 -2.76124
490 1 1 0 1 -8.5569 -1.99037 6.69589
491 1 1 0 1 -4.67615 4.44145 3.92112
492 1 1 0 1 -1.27753 -14.021 10.7046
493 1 1 0 1 1.88578 0.646364 11.9981
494 1 1 0 1 -6.91367 1.23667 6.55897
495 1 1 0 1 -5.93504 -0.143609 18.659
496 1 1 0 1 3.53613 4.49104 17.74
497 1 1 0 1 -2.45609 -7.91207 14.5937
498 1 1 0 1 0.859965 7.26686 8.04224
499 1 1 0 1 0.43784 8.27324 7.85591
500 1 1 0 1 -3.97139 -4.6773 12.3644
501 1 1 0 1 2.47936 -0.781265 9.77258
502 1 1 0 1 -0.840071 -8.31014 20.1177
503 1 1 0 1 -0.849776 5.70428 10.8911
504 1 1 0 1 1.49731 -4.12516 10.1134
505 1 1 0 1 -1.6229 -3.22902 12.9414
506 1 1 0 1 -1.30848 6.31692 14.31
507 1 1 0 1 2.2932 2.67478 -3.99244
508 1 1 0 1 -0.836719 3.83534 1.50267
509 1 1 0 1 -3.57929 5.04362 3.9566
510 1 1 0 1 -12.8837 -7.27897 -3.49445
511 1 1 0 1 5.88342 1.34917 6.45167
512 1 1 0 1 -3.9501 16.3782 5.64327
513 1 1 0 1 -5.89451 -0.746947 9.10422
514 1 1 0 1 -2.72868 -1.304 2.07187
515 1 1 0 1 7.50826 8.57759 -1.16769
516 1 1 0 1 -3.20404 10.2348 7.41442
517 1 1 0 1 -1.39139 -0.395919 7.68016
518 1 1 0 1 0.913776 3.19072 4.84552
519 1 1 0 1 5.2637 -0.717426 18.2044
520 1 1 0 1 -1.18941 -3.14994 8.87635
521 1 1 0 1 -4.53735 5.6808 9.51302
522 1 1 0 1 -4.04306 6.26048 10.4598
523 1 1 0 1 2.37378 1.75348 14.7777
524 1 1 0 1 -0.428771 3.15541 14.6952
525 1 1 0 1 -2.18067 3.12749 26.5252
526 1 1 0 1 -1.0704 -4.18202 27.2345
527 1 1 0 1 -0.629793 9.92432 19.3756
528 1 1 0 1 2.67061 1.60737 25.0861
529 1 1 0 1 8.03594 16.8677 9.69493
530 1 1 0 1 4.0435 -1.58065 -5.34367
531 1 1 0 1 5.12018 11.2937 -1.40603
532 1 1 0 1 -0.235213 -8.74041 4.98421
533 1 1 0 1 -3.70223 5.94551 -2.08668
534 1 1 0 1 -2.09727 0.372674 3.61636
535 1 1 0 1 1.16382 6.50344 -1.50455
536 1 1 0 1 -6.94966 14.0791 -0.061515
537 1 1 0 1 1.84642 3.53566 7.48251
538 1 1 0 1 -3.2332 0.234079 11.4257
539 1 1 0 1 1.84152 8.01698 6.06068
540 1 1 0 1 2.55118 7.42266 8.73485
541 1 1 0 1 -6.26101 7.91685 9.30698
542 1 1 0 1 0.335424 7.721 8.94846
543 1 1 0 1 -3.41514 6.7485 3.78617
544 1 1 0 1 -0.64837 6.18493 5.11324
545 1 1 0 1 1.82176 10.0269 12.5143
546 1 1 0 1 -0.398372 -3.76994 13.452
547 1 1 0 1 -2.32302 -2.34149 18.5944
548 1 1 0 1 1.71777 7.0351 26.2785
549 1 1 0 1 1.04984 3.76351 25.6572
550 1 1 0 1 -5.14333 8.17522 24.6208
551 1 1 0 1 -4.85304 6.45142 -6.89837
552 1 1 0 1 -7.73252 0.701831 -4.28343
553 1 1 0 1 -1.87578 6.42617 2.12172
554 1 1 0 1 2.18965 6.04438 -1.19109
555 1 1 0 1 -3.67963 4.86965 -6.93169
556 1 1 0 1 -0.904231 1.2862 4.8357
557 1 1 0 1 3.35662 12.163 1.67062
558 1 1 0 1 0.906607 4.635 6.04146
559 1 1 0 1 2.68804 -3.19584 12.6836
560 1 1 0 1 -1.10557 -4.35956 -1.99664
561 1 1 0 1 0.949186 5.92118 14.7261
562 1 1 0 1 5.38267 7.08403 23.0411
563 1 1 0 1 -3.16551 0.4491 18.625
564 1 1 0 1 -7.31165 -4.76018 10.2674
565 1 1 0 1 9.91342 6.59089 16.976
566 1 1 0 1 4.22943 5.22526 10.7696
567 1 1 0 1 -3.64737 7.13259 14.8088
568 1 1 0 1 7.05103 7.88053 14.105
569 1 1 0 1 5.46425 4.88828 18.0283
570 1 1 0 1 -2.74541 9.2497 27.8822
571 1 1 0 1 7.1885 8.92738 19.978
572 1 1 0 1 1.46042 -0.880265 20.98
573 1 1 0 1 -0.855624 3.32995 -3.45234
574 1 1 0 1 -4.7757 2.57773 2.45744
575 1 1 0 1 -4.92485 1.50893 -7.97289
576 1 1 0 1 1.22301 5.31674 -1.58225
577 1 1 0 1 -7.24947 -2.37192 5.01555
578 1 1 0 1 -2.125 10.7853 10.7346
579 1 1 0 1 -7.3991 3.07959 2.37856
580 1 1 0 1 -2.0199 0.33684 11.3874
581 1 1 0 1 -2.3789 7.82686 8.732
582 1 1 0 1 1.24757 7.71951 7.02281
583 1 1 0 1 -10.3319 11.6689 11.413
584 1 1 0 1 -5.98483 8.17673 16.1693
585 1 1 0 1 -5.77474 1.75198 13.0319
586 1 1 0 1 2.36588 13.3612 18.1188
587 1 1 0 1 -6.1303 19.1128 13.1097
588 1 1 0 1 -5.8523 3.86482 18.8128
589 1 1 0 1 -4.129 3.55524 13.3861
590 1 1 0 1 -7.61832 5.07781 14.5443
591 1 1 0 1 -8.0406 3.91567 10.0746
592 1 1 0 1 -3.29565 -0.436373 16.7357
593 1 1 0 1 -2.01372 7.27901 14.7255
594 1 1 0 1 -9.51297 -2.97437 21.3203
595 1 1 0 1 -0.345573 -2.25008 -3.07924
596 1 1 0 1 -1.64424 8.87445 2.68611
597 1 1 0 1 -6.0604 2.89688 4.68606
598 1 1 0 1 2.02826 9.51536 -1.12852
599 1 1 0 1 -2.20544 10.6052 -0.742647
600 1 1 0 1 -0.947207 2.63857 6.50105
601 1 1 0 1 -7.92429 6.85745 3.36201
602 1 1 0 1 -4.66455 -7.12527 5.65428
603 1 1 0 1 -0.451659 -6.56269 18.3753
604 1 1 0 1 11.7793 7.75457 18.0054
605 1 1 0 1 -7.91891 7.82626 4.18363
606 1 1 0 1 -5.70667 0.0935717 13.8005
607 1 1 0 1 -7.39629 4.14624 5.55083
608 1 1 0 1 -0.262809 -3.95385 11.7024
609 1 1 0 1 2.03234 9.39798 13.3595
610 1 1 0 1 1.81543 11.4122 10.5725
611 1 1 0 1 -4.67071 5.32983 6.31603
612 1 1 0 1 -0.296158 5.31097 23.1179
613 1 1 0 1 1.53154 4.05294 17.513
614 1 1 0 1 -0.889199 10.0169 23.3046
615 1 1 0 1 -11.0883 4.96746 18.4102
616 1 1 0 1 -4.99662 10.3998 15.0049
617 1 1 0 1 -1.58683 -0.218511 -4.67812
618 1 1 0 1 -11.7355 6.27297 2.54058
619 1 1 0 1 2.45826 18.3371 3.8386
620 1 1 0 1 2.67346 9.15642 4.53206
621 1 1 0 1 -2.72647 5.32148 3.17866
622 1 1 0 1 -7.87648 0.734922 0.195398
623 1 1 0 1 1.40954 4.57267 2.78498
624 1 1 0 1 -4.35606 3.95916 0.539012
625 1 1 0 1 -1.73884 1.84507 5.38901
626 1 1 0 1 -0.34717 4.80597 5.67881
627 1 1 0 1 -6.14214 -5.99121 18.2156
628 1 1 0 1 4.38727 -2.58714 8.8007
629 1 1 0 1 3.26466 10.0595 20.9386
630 1 1 0 1 2.7853 11.8692 19.527
631 1 1 0 1 3.27951 8.74769 15.1867
632 1 1 0 1 7.90479 8.99141 16.8568
633 1 1 0 1 -7.32252 10.4034 14.9239
634 1 1 0 1 -0.724862 3.81208 16.1621
635 1 1 0 1 0.977644 2.38698 19.5896
636 1 1 0 1 2.00373 1.57295 17.9594
637 1 1 0 1 -9.59102 3.5737 20.7976
638 1 1 0 1 0.800093 5.39667 22.377
639 1 1 0 1 -4.47589 -1.44218 9.31542
640 1 1 0 1 -0.975896 14.492 9.09217
641 1 1 0 1 10.1901 7.48052 -3.93927
642 1 1 0 1 1.27411 15.9772 12.5808
643 1 1 0 1 1.33023 12.175 15.4062
644 1 1 0 1 -5.32607 8.32456 -0.48383
645 1 1 0 1 -0.904648 3.1781 3.88087
646 1 1 0 1 3.4203 4.85466 5.6762
647 1 1 0 1 -6.81691 9.04156 -2.51534
648 1 1 0 1 -3.77723 11.0868 12.3443
649 1 1 0 1 0.811771 5.39669 2.96827
650 1 1 0 1 3.79053 7.35667 13.3648
651 1 1 0 1 -0.133446 11.822 8.84867
652 1 1 0 1 -2.87515 13.8202 16.4535
653 1 1 0 1 -2.38732 18.0409 11.7362
654 1 1 0 1 -0.979554 8.65517 19.2918
655 1 1 0 1 1.21104 5.98386 3.88318
656 1 1 0 1 -3.22876 4.37331 11.5555
657 1 1 0 1 4.69303 7.724 17.8856
658 1 1 0 1 0.035168 9.42437 23.2359
659 1 1 0 1 -7.20981 6.76102 12.4875
660 1 1 0 1 4.73073 7.86625 18.8928
661 1 1 0 1 -0.891056 6.77786 2.39208
662 1 1 0 1 -1.75984 10.7331 1.42399
663 1 1 0 1 -3.38095 8.42561 1.31459
664 1 1 0 1 -2.78359 10.1373 5.07057
665 1 1 0 1 -8.48865 2.4674 5.05828
666 1 1 0 1 9.05219 10.178 10.5398
667 1 1 0 1 -6.31684 6.92486 -1.66618
668 1 1 0 1 -6.97578 2.10384 2.32912
669 1 1 0 1 9.06744 1.88519 2.00071
670 1 1 0 1 -4.122 3.1006 9.04896
671 1 1 0 1 2.65537 1.69607 5.59776
672 1 1 0 1 -2.23044 18.1919 15.1641
673 1 1 0 1 -8.90427 16.8468 13.507
674 1 1 0 1 -0.0400349 13.9076 17.1528
675 1 1 0 1 -1.80655 7.73638 16.9802
676 1 1 0 1 -2.20572 -0.762499 15.0341
677 1 1 0 1 -0.363348 4.75632 17.6448
678 1 1 0 1 3.58936 7.52245 19.5268
679 1 1 0 1 -10.4034 8.51608 14.7268
680 1 1 0 1 0.342323 2.30959 13.7927
681 1 1 0 1 -3.71031 9.44165 20.0788
682 1 1 0 1 8.40354 8.04136 26.8574
683 1 1 0 1 -3.6702 10.1272 4.58946
684 1 1 0 1 -6.33495 7.805 -0.647681
685 1 1 0 1 0.446703 10.4308 2.2488
686 1 1 0 1 -2.54459 4.96797 4.41982
687 1 1 0 1 0.456212 14.9825 2.90248
688 1 1 0 1 -3.23929 13.8707 12.3943
689 1 1 0 1 -1.07819 2.82285 5.37747
690 1 1 0 1 3.96352 2.06146 14.0577
691 1 1 0 1 -0.769574 5.39305 3.02346
692 1 1 0 1 -4.94141 8.47351 8.77347
693 1 1 0 1 -3.90539 4.81977 19.7931
694 1 1 0 1 -9.29205 11.2475 13.162
695 1 1 0 1 -0.220861 11.6625 14.9964
696 1 1 0 1 -5.7834 4.91446 19.0973
697 1 1 0 1 -1.8335 8.79931 19.9996
698 1 1 0 1 -6.77568 8.21727 15.4317
699 1 1 0 1 5.08148 8.61681 22.6452
700 1 1 0 1 3.24757 11.9665 21.2125
701 1 1 0 1 -1.78953 11.9823 21.1722
702 1 1 0 1 -3.57971 8.39765 21.9167
703 1 1 0 1 -3.44373 13.7871 18.8599
704 1 1 0 1 6.2465 22.3221 17.321
705 1 1 0 1 -1.62004 6.92177 3.14863
706 1 1 0 1 -1.0851 8.19426 -6.76924
707 1 1 0 1 -1.69992 28.9824 0.685545
708 1 1 0 1 2.33052 7.15122 2.59599
709 1 1 0 1 -10.3069 12.7025 5.59988
710 1 1 0 1 -3.2634 11.1108 -0.537592
711 1 1 0 1 -5.85662 8.83494 3.89037
712 1 1 0 1 -0.827952 12.6584 14.0955
713 1 1 0 1 0.128768 9.22099 4.35372
714 1 1 0 1 -2.10841 16.3636 -1.4669
715 1 1 0 1 -4.15794 12.9734 14.8068
716 1 1 0 1 -3.2961 16.4555 18.7705
717 1 1 0 1 -2.52622 13.5956 18.1436
718 1 1 0 1 -0.600526 6.8289 12.6194
719 1 1 0 1 -5.88812 9.52149 14.4455
720 1 1 0 1 -3.08224 11.9171 23.6913
721 1 1 0 1 -8.71742 13.5274 11.8149
722 1 1 0 1 5.29242 19.3086 27.0258
723 1 1 0 1 -4.98165 11.0732 17.4326
724 1 1 0 1 -0.709424 18.9552 22.3329
725 1 1 0 1 0.435846 13.2742 26.0946
726 1 1 0 1 -10.6432 16.348 19.4858
727 1 1 0 1 4.81718 15.0787 1.75192
728 1 1 0 1 -1.5762 17.4495 -3.94547
729 1 1 0 1 -3.79457 3.61956 -5.78674
730 1 1 0 1 -2.26284 15.9269 6.60366
731 1 1 0 1 -0.0894183 18.2263 5.22145
732 1 1 0 1 7.24811 11.9389 6.12545
733 1 1 0 1 -5.42538 9.95773 4.87267
734 1 1 0 1 2.82214 5.36995 -0.161134
735 1 1 0 1 -8.72455 14.8537 2.49798
736 1 1 0 1 -7.48413 17.0671 -1.95449
737 1 1 0 1 -0.939956 9.48616 16.9151
738 1 1 0 1 8.83747 15.4285 7.88278
739 1 1 0 1 -6.42957 6.36547 17.2035
740 1 1 0 1 -1.09859 10.1946 17.8915
741 1 1 0 1 -3.13814 10.5528 18.5508
742 1 1 0 1 2.99256 8.64104 24.7168
743 1 1 0 1 -4.88724 9.1346 18.7914
744 1 1 0 1 4.40585 15.6352 26.6537
745 1 1 0 1 -1.6649 10.4013 18.9881
746 1 1 0 1 -2.01373 14.87 20.9878
747 1 1 0 1 3.30662 9.53284 25.8495
748 1 1 0 1 4.8723 13.0484 33.9622
749 1 1 0 1 2.84266 10.7905 1.94205
750 1 1 0 1 -1.07526 10.8126 11.4357
751 1 1 0 1 -13.8951 15.0821 10.7143
752 1 1 0 1 -5.18832 16.6125 10.5106
753 1 1 0 1 -4.3561 12.06 12.0027
754 1 1 0 1 5.3638 9.81153 4.26312
755 1 1 0 1 0.922165 19.3213 2.07062
756 1 1 0 1 -7.44443 24.7104 0.192742
757 1 1 0 1 -4.78494 10.4926 12.565
758 1 1 0 1 -7.30897 20.5157 11.1083
759 1 1 0 1 -4.54471 13.1677 4.6805
760 1 1 0 1 0.0922542 1.97891 15.7198
761 1 1 0 1 -6.34385 14.3388 16.135
762 1 1 0 1 -9.11382 12.8479 10.215
763 1 1 0 1 7.42485 17.8172 9.17466
764 1 1 0 1 -1.3756 19.815 14.7409
765 1 1 0 1 1.81926 12.1461 21.3411
766 1 1 0 1 -5.62013 15.4986 14.5962
767 1 1 0 1 -12.5991 15.7186 18.741
768 1 1 0 1 -5.87993 18.0653 23.0148
769 1 1 0 1 7.48087 9.28303 22.96
770 1 1 0 1 0.678991 17.3816 24.8699
771 1 1 0 1 -5.50791 10.5234 3.201
772 1 1 0 1 -1.01542 15.5508 11.3955
773 1 1 0 1 -3.062 10.2601 1.72934
774 1 1 0 1 -5.86458 7.51116 12.6315
775 1 1 0 1 -6.36893 12.342 -4.51196
776 1 1 0 1 -2.19789 8.38534 10.9647
777 1 1 0 1 -0.599954 17.0737 11.699
778 1 1 0 1 -2.53254 14.3735 11.5466
779 1 1 0 1 -0.132011 13.0806 23.406
780 1 1 0 1 -3.91654 15.879 9.15833
781 1 1 0 1 1.10872 21.8843 17.7117
782 1 1 0 1 0.820612 18.58 15.2715
783 1 1 0 1 -3.09829 13.7782 5.13256
784 1 1 0 1 -4.62602 17.7309 22.5487
785 1 1 0 1 -6.26269 25.934 16.3302
786 1 1 0 1 -5.70441 11.1405 16.5223
787 1 1 0 1 3.486 9.81423 23.3915
788 1 1 0 1 -10.2834 18.9287 12.7823
789 1 1 0 1 -3.56724 17.5922 19.3065
790 1 1 0 1 -5.75106 13.2491 23.2658
791 1 1 0 1 -9.73507 14.9414 18.1406
792 1 1 0 1 -5.83073 9.90703 20.7811
793 1 1 0 1 -8.42658 20.184 5.41703
794 1 1 0 1 -3.84605 16.0736 4.77037
795 1 1 0 1 4.81703 23.0028 -5.0365
796 1 1 0 1 1.28822 13.9029 10.1624
797 1 1 0 1 -4.89547 23.0507 -0.570351
798 1 1 0 1 2.6129 10.8887 -0.489251
799 1 1 0 1 -3.10644 12.6451 4.32458
800 1 1 0 1 3.52307 9.13004 -0.113866
801 1 1 0 1 8.58279 13.8635 8.96739
802 1 1 0 1 -3.18359 20.0346 9.6641
803 1 1 0 1 0.762263 11.3899 19.5454
804 1 1 0 1 -2.07578 16.3283 10.1513
805 1 1 0 1 -7.39758 13.6046 19.2352
806 1 1 0 1 -3.02518 1.9949 2.92323
807 1 1 0 1 1.73088 20.1011 16.4753
808 1 1 0 1 -1.68463 17.259 11.904
809 1 1 0 1 -2.68444 15.921 10.8191
810 1 1 0 1 0.560631 16.3845 20.6467
811 1 1 0 1 5.47985 17.2235 20.7624