ITEM: TIMESTEP
1000
ITEM: NUMBER OF ATOMS
6752
ITEM: BOX BOUNDS pp pp pp
0.0000000000000000e+00 2.2000000000000000e+01
0.0000000000000000e+00 2.2000000000000000e+01
0.0000000000000000e+00 2.2000000000000000e+01
ITEM: ATOMS id mol type q mass xu yu zu
1 1 1 0 1 -2.13882 -0.270684 -0.403582
2 1 1 0 1 -2.90077 1.01963 3.484
3 1 1 0 1 -3.56928 2.32887 2.94986
4 1 1 0 1 -2.73048 -0.142885 4.21395
5 1 1 0 1 -2.38468 0.239693 5.20928
6 1 1 0 1 -3.38564 2.051 3.96085
7 1 1 0 1 -3.73453 5.56436 5.68769
8 1 1 0 1 -3.40312 2.26423 7.37712
9 1 1 0 1 -2.9617 -0.0875478 8.28894
10 1 1 0 1 -3.67791 3.48116 7.41792
11 1 1 0 1 -3.67791 3.48116 12.5821
12 1 1 0 1 -2.9617 -0.0875478 11.7111
13 1 1 0 1 -3.40312 2.26423 12.6229
14 1 1 0 1 -3.73453 5.56436 14.3123
15 1 1 0 1 -3.38564 2.051 16.0391
16 1 1 0 1 -2.38468 0.239693 14.7907
17 1 1 0 1 -2.73048 -0.142885 15.786
18 1 1 0 1 -3.56928 2.32887 17.0501
19 1 1 0 1 -2.90077 1.01963 16.516
20 1 1 0 1 -2.13882 -0.270683 20.4036
21 1 1 0 1 -3.34897 4.03775 20.369
22 1 1 0 1 -3.34897 4.03775 21.631
23 1 1 0 1 -3.9027 2.78689 0.464066
24 1 1 0 1 -3.25011 1.87415 1.342
25 1 1 0 1 -2.86887 0.965582 2.06937
26 1 1 0 1 -2.07329 1.07188 2.82112
27 1 1 0 1 -2.05059 0.623447 4.37467
28 1 1 0 1 -3.10588 1.94821 5.10611
29 1 1 0 1 -2.36008 1.14439 6.67772
30 1 1 0 1 -1.53832 0.663421 7.45019
31 1 1 0 1 -1.98119 1.11949 8.4163
32 1 1 0 1 -3.36672 0.614556 9.41311
33 1 1 0 1 -3.36672 0.614556 10.5869
34 1 1 0 1 -1.98119 1.11949 11.5837
35 1 1 0 1 -1.53832 0.663421 12.5498
36 1 1 0 1 -2.36008 1.14439 13.3223
37 1 1 0 1 -3.10588 1.94821 14.8939
38 1 1 0 1 -2.05059 0.623447 15.6253
39 1 1 0 1 -2.07329 1.07188 17.1789
40 1 1 0 1 -2.86887 0.965582 17.9306
41 1 1 0 1 -3.25011 1.87415 18.658
42 1 1 0 1 -3.9027 2.78689 19.5359
43 1 1 0 1 -2.44451 3.40899 20.3886
44 1 1 0 1 -2.44451 3.40899 21.6114
45 1 1 0 1 -3.93335 4.15336 0.964032
46 1 1 0 1 -5.15154 9.29672 3.63156
47 1 1 0 1 -3.42043 2.88183 1.9481
48 1 1 0 1 -3.28124 3.65127 2.84641
49 1 1 0 1 -2.06123 2.61171 3.17075
50 1 1 0 1 -3.0461 3.64105 4.73047
51 1 1 0 1 -1.92983 2.62428 5.51595
52 1 1 0 1 -3.17375 3.50951 6.3887
53 1 1 0 1 -3.09468 1.45919 8.13431
54 1 1 0 1 -3.32675 2.8941 9.3579
55 1 1 0 1 -3.32675 2.8941 10.6421
56 1 1 0 1 -3.09468 1.45919 11.8657
57 1 1 0 1 -3.17375 3.50951 13.6113
58 1 1 0 1 -1.92983 2.62428 14.4841
59 1 1 0 1 -3.0461 3.64105 15.2695
60 1 1 0 1 -2.06123 2.61171 16.8292
61 1 1 0 1 -3.28124 3.65127 17.1536
62 1 1 0 1 -3.42043 2.88183 18.0519
63 1 1 0 1 -5.15154 9.29672 16.3684
64 1 1 0 1 -3.93335 4.15336 19.036
65 1 1 0 1 -2.90803 4.02395 19.5183
66 1 1 0 1 -2.90803 4.02395 22.4817
67 1 1 0 1 -3.34923 4.80024 1.59815
68 1 1 0 1 -2.20781 3.34394 0.665669
69 1 1 0 1 -1.2983 2.5454 1.72989
70 1 1 0 1 -1.15492 3.15746 2.80408
71 1 1 0 1 -1.50675 2.61634 4.02701
72 1 1 0 1 -1.26862 3.3634 5.08818
73 1 1 0 1 -1.97665 3.43547 6.53682
74 1 1 0 1 -2.25518 2.3869 7.31962
75 1 1 0 1 -2.67579 2.46357 8.3745
76 1 1 0 1 -2.10057 2.97977 9.45637
77 1 1 0 1 -2.10057 2.97977 10.5436
78 1 1 0 1 -2.67579 2.46357 11.6255
79 1 1 0 1 -2.25518 2.3869 12.6804
80 1 1 0 1 -1.97665 3.43547 13.4632
81 1 1 0 1 -1.26862 3.3634 14.9118
82 1 1 0 1 -1.50675 2.61634 15.973
83 1 1 0 1 -1.15492 3.15746 17.1959
84 1 1 0 1 -1.2983 2.5454 18.2701
85 1 1 0 1 -2.20781 3.34394 19.3343
86 1 1 0 1 -3.34923 4.80024 18.4018
87 1 1 0 1 -2.44674 4.64864 20.2118
88 1 1 0 1 -2.44674 4.64865 21.7882
89 1 1 0 1 -3.87517 6.33888 1.61469
90 1 1 0 1 -3.6715 5.6081 2.72914
91 1 1 0 1 -2.34614 2.98572 2.16229
92 1 1 0 1 -3.47674 5.07452 4.60277
93 1 1 0 1 -2.98009 4.64006 3.58792
94 1 1 0 1 -2.9212 4.63903 5.54266
95 1 1 0 1 -3.74474 4.0845 5.75943
96 1 1 0 1 -2.62784 4.67413 6.54437
97 1 1 0 1 -2.73155 4.15822 7.40224
98 1 1 0 1 -2.598 4.16575 9.33607
99 1 1 0 1 -2.598 4.16574 10.6639
100 1 1 0 1 -2.73155 4.15822 12.5978
101 1 1 0 1 -2.62784 4.67413 13.4556
102 1 1 0 1 -3.74474 4.0845 14.2406
103 1 1 0 1 -2.9212 4.63903 14.4573
104 1 1 0 1 -2.98009 4.64006 16.4121
105 1 1 0 1 -3.47674 5.07452 15.3972
106 1 1 0 1 -2.34614 2.98572 17.8377
107 1 1 0 1 -3.6715 5.6081 17.2709
108 1 1 0 1 -3.87517 6.33888 18.3853
109 1 1 0 1 -3.90931 5.67244 20.5383
110 1 1 0 1 -3.90931 5.67244 21.4617
111 1 1 0 1 -3.4043 5.56165 0.292768
112 1 1 0 1 -1.88862 5.26969 1.60056
113 1 1 0 1 -2.92573 5.66318 3.76924
114 1 1 0 1 -1.9935 5.14203 3.51029
115 1 1 0 1 -2.10658 4.22392 4.34394
116 1 1 0 1 -1.71759 5.13808 4.61828
117 1 1 0 1 -1.72788 5.22237 5.91577
118 1 1 0 1 -0.687573 4.697 6.8814
119 1 1 0 1 -1.34613 4.57022 7.99879
120 1 1 0 1 -1.57268 5.41048 9.28439
121 1 1 0 1 -1.57269 5.41047 10.7156
122 1 1 0 1 -1.34613 4.57022 12.0012
123 1 1 0 1 -0.687573 4.697 13.1186
124 1 1 0 1 -1.72788 5.22238 14.0842
125 1 1 0 1 -1.71759 5.13808 15.3817
126 1 1 0 1 -2.10658 4.22392 15.6561
127 1 1 0 1 -1.9935 5.14203 16.4897
128 1 1 0 1 -2.92573 5.66318 16.2308
129 1 1 0 1 -1.88862 5.26969 18.3994
130 1 1 0 1 -3.4043 5.56165 19.7072
131 1 1 0 1 -2.20328 5.57209 19.9256
132 1 1 0 1 -2.20328 5.57209 22.0744
133 1 1 0 1 -3.8275 6.88507 0.266775
134 1 1 0 1 -2.9306 5.69667 1.79819
135 1 1 0 1 -2.34708 5.56357 2.7115
136 1 1 0 1 -3.62408 6.70219 4.17533
137 1 1 0 1 -3.25539 6.16799 5.02233
138 1 1 0 1 -2.82743 7.39505 4.75666
139 1 1 0 1 -2.34002 6.46183 5.38245
140 1 1 0 1 -1.99063 6.42346 6.3949
141 1 1 0 1 -2.01013 6.37962 8.09331
142 1 1 0 1 -2.11335 6.23321 9.17498
143 1 1 0 1 -2.11335 6.2332 10.825
144 1 1 0 1 -2.01013 6.37962 11.9067
145 1 1 0 1 -1.99063 6.42346 13.6051
146 1 1 0 1 -2.34002 6.46182 14.6176
147 1 1 0 1 -2.82743 7.39505 15.2433
148 1 1 0 1 -3.25539 6.16799 14.9777
149 1 1 0 1 -3.62408 6.70219 15.8247
150 1 1 0 1 -2.34708 5.56357 17.2885
151 1 1 0 1 -2.9306 5.69668 18.2018
152 1 1 0 1 -3.8275 6.88507 19.7332
153 1 1 0 1 -2.96434 6.19322 20.5251
154 1 1 0 1 -2.96434 6.19322 21.4749
155 1 1 0 1 -1.60545 6.7605 0.654612
156 1 1 0 1 -1.49557 7.23246 1.53486
157 1 1 0 1 -2.81901 6.50917 2.40977
158 1 1 0 1 -1.50766 7.40631 2.62341
159 1 1 0 1 -2.2623 7.63432 3.32553
160 1 1 0 1 -1.82579 7.45531 4.33425
161 1 1 0 1 -1.19967 7.00002 5.06676
162 1 1 0 1 -1.09969 7.06015 6.38601
163 1 1 0 1 -1.25481 7.00242 7.77704
164 1 1 0 1 -1.70646 7.32785 8.97311
165 1 1 0 1 -1.70646 7.32785 11.0269
166 1 1 0 1 -1.25481 7.00243 12.223
167 1 1 0 1 -1.09969 7.06015 13.614
168 1 1 0 1 -1.19967 7.00002 14.9332
169 1 1 0 1 -1.82579 7.4553 15.6658
170 1 1 0 1 -2.2623 7.63432 16.6745
171 1 1 0 1 -1.50766 7.40631 17.3766
172 1 1 0 1 -2.81901 6.50917 17.5902
173 1 1 0 1 -1.49557 7.23246 18.4651
174 1 1 0 1 -1.60545 6.7605 19.3454
175 1 1 0 1 -1.90842 7.28935 20.4602
176 1 1 0 1 -1.90842 7.28935 21.5398
177 1 1 0 1 -2.65046 6.91128 0.374973
178 1 1 0 1 -1.86392 8.63581 1.1325
179 1 1 0 1 -2.49259 7.23831 1.27586
180 1 1 0 1 -2.42101 8.20497 2.31977
181 1 1 0 1 -1.56921 8.47329 3.03109
182 1 1 0 1 -1.99101 8.60124 4.1604
183 1 1 0 1 -1.95292 8.73715 5.23331
184 1 1 0 1 -1.40231 8.13647 6.06073
185 1 1 0 1 -1.35159 8.07743 8.07366
186 1 1 0 1 -3.25233 8.54073 8.87692
187 1 1 0 1 -3.25235 8.54074 11.1231
188 1 1 0 1 -1.3516 8.07743 11.9264
189 1 1 0 1 -1.40232 8.13647 13.9393
190 1 1 0 1 -1.95292 8.73714 14.7667
191 1 1 0 1 -1.99101 8.60125 15.8396
192 1 1 0 1 -1.56921 8.47329 16.9689
193 1 1 0 1 -2.42101 8.20497 17.6802
194 1 1 0 1 -2.49259 7.23831 18.7241
195 1 1 0 1 -1.86392 8.63581 18.8675
196 1 1 0 1 -2.65046 6.91128 19.625
197 1 1 0 1 -2.14536 8.45576 20.129
198 1 1 0 1 -2.14536 8.45576 21.871
199 1 1 0 1 -2.56978 9.25075 0.546375
200 1 1 0 1 -1.93105 9.82677 1.21099
201 1 1 0 1 -2.95268 10.533 0.442087
202 1 1 0 1 -2.21047 9.36308 2.53205
203 1 1 0 1 -2.1652 9.56221 3.62876
204 1 1 0 1 -1.58271 9.62161 4.60966
205 1 1 0 1 -1.73266 9.53451 6.032
206 1 1 0 1 -1.50987 9.30663 7.14431
207 1 1 0 1 -1.95414 9.20432 8.15791
208 1 1 0 1 -1.88965 9.54554 9.19749
209 1 1 0 1 -1.88965 9.54553 10.8025
210 1 1 0 1 -1.95417 9.20431 11.8421
211 1 1 0 1 -1.50987 9.30664 12.8557
212 1 1 0 1 -1.73266 9.53451 13.968
213 1 1 0 1 -1.58271 9.62161 15.3903
214 1 1 0 1 -2.1652 9.56221 16.3712
215 1 1 0 1 -2.21047 9.36308 17.468
216 1 1 0 1 -2.95268 10.533 19.5579
217 1 1 0 1 -1.93105 9.82678 18.789
218 1 1 0 1 -2.56978 9.25075 19.4536
219 1 1 0 1 -1.54231 9.3195 20.4476
220 1 1 0 1 -1.54231 9.3195 21.5524
221 1 1 0 1 -2.61122 11.5306 0.833536
222 1 1 0 1 -2.4372 10.701 1.48057
223 1 1 0 1 -2.74795 11.8183 2.05252
224 1 1 0 1 -2.04145 10.4395 2.79419
225 1 1 0 1 -3.41931 10.9142 3.53197
226 1 1 0 1 -2.02397 10.5521 4.62473
227 1 1 0 1 -2.26864 10.5067 5.70716
228 1 1 0 1 -1.99222 10.3152 6.84936
229 1 1 0 1 -1.91896 10.4321 8.06521
230 1 1 0 1 -2.73239 10.1381 9.03627
231 1 1 0 1 -2.73238 10.1381 10.9637
232 1 1 0 1 -1.91896 10.432 11.9348
233 1 1 0 1 -1.99222 10.3152 13.1506
234 1 1 0 1 -2.26864 10.5067 14.2928
235 1 1 0 1 -2.02397 10.5521 15.3753
236 1 1 0 1 -3.41932 10.9142 16.468
237 1 1 0 1 -2.04145 10.4395 17.2058
238 1 1 0 1 -2.74795 11.8183 17.9475
239 1 1 0 1 -2.4372 10.701 18.5194
240 1 1 0 1 -2.61122 11.5306 19.1665
241 1 1 0 1 -1.98255 10.2655 20.0229
242 1 1 0 1 -1.98255 10.2655 21.9771
243 1 1 0 1 -3.42944 11.983 0.335471
244 1 1 0 1 -1.56562 11.6472 1.02459
245 1 1 0 1 -3.24275 12.6725 1.21525
246 1 1 0 1 -2.00464 11.62 2.81739
247 1 1 0 1 -2.00544 12.1068 4.22165
248 1 1 0 1 -1.52796 11.5131 4.98048
249 1 1 0 1 -1.77537 11.7829 6.19492
250 1 1 0 1 -1.68059 11.2886 7.37566
251 1 1 0 1 -1.25128 11.4496 8.42918
252 1 1 0 1 -1.6704 11.8333 9.36283
253 1 1 0 1 -1.67037 11.8332 10.6372
254 1 1 0 1 -1.25128 11.4496 11.5708
255 1 1 0 1 -1.68059 11.2886 12.6243
256 1 1 0 1 -1.77537 11.7829 13.8051
257 1 1 0 1 -1.52796 11.5131 15.0195
258 1 1 0 1 -2.00543 12.1068 15.7784
259 1 1 0 1 -2.00464 11.62 17.1826
260 1 1 0 1 -3.24275 12.6725 18.7848
261 1 1 0 1 -1.56562 11.6472 18.9754
262 1 1 0 1 -3.42944 11.983 19.6645
263 1 1 0 1 -2.06096 11.4361 20.4887
264 1 1 0 1 -2.06096 11.4361 21.5113
265 1 1 0 1 -2.59962 13.5598 1.13829
266 1 1 0 1 -1.96881 12.646 0.659215
267 1 1 0 1 -2.30634 13.0062 1.97459
268 1 1 0 1 -2.27264 12.4685 3.31967
269 1 1 0 1 -2.27843 13.3987 3.74327
270 1 1 0 1 -2.61615 12.9062 4.92003
271 1 1 0 1 -1.51954 12.9229 6.1197
272 1 1 0 1 -2.06701 12.6162 7.07722
273 1 1 0 1 -1.7868 12.6945 8.11133
274 1 1 0 1 -2.32342 12.6127 9.07526
275 1 1 0 1 -2.32342 12.6127 10.9247
276 1 1 0 1 -1.7868 12.6945 11.8887
277 1 1 0 1 -2.06701 12.6162 12.9228
278 1 1 0 1 -1.51954 12.9229 13.8803
279 1 1 0 1 -2.61615 12.9062 15.08
280 1 1 0 1 -2.27843 13.3987 16.2567
281 1 1 0 1 -2.27264 12.4685 16.6803
282 1 1 0 1 -2.30634 13.0062 18.0254
283 1 1 0 1 -1.96881 12.646 19.3408
284 1 1 0 1 -2.59963 13.5598 18.8617
285 1 1 0 1 -2.67552 12.7131 20.3627
286 1 1 0 1 -2.67552 12.7131 21.6373
287 1 1 0 1 -2.29686 14.5817 0.53854
288 1 1 0 1 -1.44754 13.5265 1.10425
289 1 1 0 1 -3.6824 12.5358 4.7118
290 1 1 0 1 -1.37787 13.7482 3.21435
291 1 1 0 1 -2.71915 14.0771 4.57314
292 1 1 0 1 -1.776 13.5573 5.31972
293 1 1 0 1 -2.00713 14.1425 6.51101
294 1 1 0 1 -1.28272 13.3415 7.06358
295 1 1 0 1 -1.60662 13.935 8.45169
296 1 1 0 1 -1.88339 13.5707 9.49508
297 1 1 0 1 -1.8834 13.5707 10.5049
298 1 1 0 1 -1.60662 13.935 11.5483
299 1 1 0 1 -1.28272 13.3415 12.9364
300 1 1 0 1 -2.00713 14.1425 13.489
301 1 1 0 1 -1.776 13.5573 14.6803
302 1 1 0 1 -2.71915 14.0771 15.4269
303 1 1 0 1 -1.37787 13.7482 16.7856
304 1 1 0 1 -3.6824 12.5358 15.2882
305 1 1 0 1 -1.44754 13.5265 18.8957
306 1 1 0 1 -2.29686 14.5817 19.4615
307 1 1 0 1 -2.96615 13.8751 20.4064
308 1 1 0 1 -2.96615 13.8751 21.5936
309 1 1 0 1 -3.54604 14.2728 1.52695
310 1 1 0 1 -0.932321 14.9573 1.77554
311 1 1 0 1 -2.86955 15.0811 2.22757
312 1 1 0 1 -2.57445 14.5189 3.38681
313 1 1 0 1 -1.86472 15.3103 4.12256
314 1 1 0 1 -2.53382 14.7047 5.46552
315 1 1 0 1 -2.4846 15.3168 6.36061
316 1 1 0 1 -2.25789 14.7767 7.22675
317 1 1 0 1 -1.80219 14.9183 8.16168
318 1 1 0 1 -2.27743 14.7277 9.29963
319 1 1 0 1 -2.27742 14.7277 10.7004
320 1 1 0 1 -1.80219 14.9183 11.8383
321 1 1 0 1 -2.25789 14.7767 12.7733
322 1 1 0 1 -2.4846 15.3168 13.6394
323 1 1 0 1 -2.53382 14.7047 14.5345
324 1 1 0 1 -1.86472 15.3103 15.8774
325 1 1 0 1 -2.57445 14.5189 16.6132
326 1 1 0 1 -2.86955 15.0811 17.7724
327 1 1 0 1 -0.932321 14.9573 18.2245
328 1 1 0 1 -3.54604 14.2728 18.4731
329 1 1 0 1 -1.12987 14.8789 20.2761
330 1 1 0 1 -1.12987 14.8789 21.7239
331 1 1 0 1 -2.44229 15.3873 1.1017
332 1 1 0 1 -2.65807 16.2574 1.72885
333 1 1 0 1 -1.78539 16.4081 3.11753
334 1 1 0 1 -2.49097 15.546 3.38677
335 1 1 0 1 -1.21288 16.2929 4.71365
336 1 1 0 1 -1.96226 15.5565 5.31264
337 1 1 0 1 -1.60726 16.2256 6.01367
338 1 1 0 1 -1.93777 15.8645 7.05583
339 1 1 0 1 -1.66426 16.3448 8.05666
340 1 1 0 1 -1.9646 15.8627 8.90223
341 1 1 0 1 -1.9646 15.8627 11.0978
342 1 1 0 1 -1.66426 16.3448 11.9433
343 1 1 0 1 -1.93777 15.8645 12.9442
344 1 1 0 1 -1.60726 16.2256 13.9863
345 1 1 0 1 -1.96226 15.5565 14.6874
346 1 1 0 1 -1.21288 16.2929 15.2863
347 1 1 0 1 -2.49097 15.546 16.6132
348 1 1 0 1 -1.78539 16.4081 16.8825
349 1 1 0 1 -2.65807 16.2574 18.2711
350 1 1 0 1 -2.44229 15.3873 18.8983
351 1 1 0 1 -3.77391 14.4639 19.8993
352 1 1 0 1 -3.77391 14.4639 22.1007
353 1 1 0 1 -3.43199 14.3228 3.0209
354 1 1 0 1 -1.37214 16.5752 2.03424
355 1 1 0 1 -3.65356 14.4463 4.03733
356 1 1 0 1 -3.04939 16.0189 2.7173
357 1 1 0 1 -3.18361 17.1437 4.55823
358 1 1 0 1 -2.57866 16.5363 5.0511
359 1 1 0 1 -2.70893 16.4533 6.3219
360 1 1 0 1 -2.41573 17.2667 7.20219
361 1 1 0 1 -2.76043 17.5837 8.18683
362 1 1 0 1 -2.58668 16.8582 9.27037
363 1 1 0 1 -2.58668 16.8582 10.7296
364 1 1 0 1 -2.76043 17.5837 11.8132
365 1 1 0 1 -2.41573 17.2667 12.7978
366 1 1 0 1 -2.70893 16.4533 13.6781
367 1 1 0 1 -2.57866 16.5363 14.9489
368 1 1 0 1 -3.18361 17.1437 15.4418
369 1 1 0 1 -3.04939 16.0189 17.2827
370 1 1 0 1 -3.65356 14.4463 15.9627
371 1 1 0 1 -1.37214 16.5752 17.9658
372 1 1 0 1 -3.43199 14.3228 16.9791
373 1 1 0 1 -3.14576 15.7004 19.8317
374 1 1 0 1 -3.14576 15.7004 22.1683
375 1 1 0 1 -3.54331 16.1519 1.04263
376 1 1 0 1 -4.75931 13.9799 3.57884
377 1 1 0 1 -4.11349 16.9771 3.54984
378 1 1 0 1 -1.33303 17.7303 4.20634
379 1 1 0 1 -2.30414 17.4857 4.85682
380 1 1 0 1 -4.18033 16.3565 5.7728
381 1 1 0 1 -1.87575 17.2746 5.7044
382 1 1 0 1 -1.91481 18.087 7.78451
383 1 1 0 1 -1.75802 18.3878 8.69077
384 1 1 0 1 -2.04621 17.8394 9.45176
385 1 1 0 1 -2.04621 17.8394 10.5482
386 1 1 0 1 -1.75802 18.3878 11.3092
387 1 1 0 1 -1.91481 18.087 12.2155
388 1 1 0 1 -1.87575 17.2746 14.2956
389 1 1 0 1 -4.18033 16.3565 14.2272
390 1 1 0 1 -2.30414 17.4857 15.1432
391 1 1 0 1 -1.33303 17.7303 15.7937
392 1 1 0 1 -4.11349 16.9771 16.4502
393 1 1 0 1 -4.75931 13.9799 16.4212
394 1 1 0 1 -3.54331 16.1519 18.9574
395 1 1 0 1 -4.22755 15.1942 19.1104
396 1 1 0 1 -4.22755 15.1942 22.8896
397 1 1 0 1 -2.53709 17.2387 2.15426
398 1 1 0 1 -2.22141 18.5007 2.72747
399 1 1 0 1 -3.81175 18.7261 2.92963
400 1 1 0 1 -3.20428 17.7387 2.78494
401 1 1 0 1 -4.36485 17.513 5.84814
402 1 1 0 1 -3.28749 17.4815 5.39281
403 1 1 0 1 -3.33799 17.5831 6.6892
404 1 1 0 1 -2.69157 18.2463 7.19851
405 1 1 0 1 -2.6344 19.3147 7.92902
406 1 1 0 1 -2.91522 18.6082 8.89954
407 1 1 0 1 -2.91522 18.6082 11.1005
408 1 1 0 1 -2.6344 19.3147 12.071
409 1 1 0 1 -2.69157 18.2463 12.8015
410 1 1 0 1 -3.33799 17.5831 13.3108
411 1 1 0 1 -3.28749 17.4815 14.6072
412 1 1 0 1 -4.36485 17.513 14.1519
413 1 1 0 1 -3.20428 17.7387 17.2151
414 1 1 0 1 -3.81175 18.7261 17.0704
415 1 1 0 1 -2.22141 18.5007 17.2725
416 1 1 0 1 -2.53709 17.2387 17.8457
417 1 1 0 1 -2.88733 16.4875 20.4317
418 1 1 0 1 -2.88733 16.4875 21.5683
419 1 1 0 1 -3.48888 19.4928 1.88328
420 1 1 0 1 -3.62499 19.704 3.77244
421 1 1 0 1 -3.56806 18.5615 4.57025
422 1 1 0 1 -2.47614 19.0097 3.77593
423 1 1 0 1 -2.53324 19.8193 4.47548
424 1 1 0 1 -3.1915 19.4088 5.58418
425 1 1 0 1 -2.20979 20.0309 5.60994
426 1 1 0 1 -3.021 19.1146 6.68043
427 1 1 0 1 -2.33235 20.2074 7.28035
428 1 1 0 1 -2.82047 20.154 9.50523
429 1 1 0 1 -2.82047 20.154 10.4948
430 1 1 0 1 -2.33235 20.2074 12.7196
431 1 1 0 1 -3.021 19.1146 13.3196
432 1 1 0 1 -2.20979 20.0309 14.3901
433 1 1 0 1 -3.1915 19.4088 14.4158
434 1 1 0 1 -2.53324 19.8193 15.5245
435 1 1 0 1 -2.47614 19.0097 16.2241
436 1 1 0 1 -3.56806 18.5615 15.4298
437 1 1 0 1 -3.62499 19.704 16.2276
438 1 1 0 1 -3.48888 19.4928 18.1167
439 1 1 0 1 -3.15043 19.8113 19.323
440 1 1 0 1 -3.15043 19.8113 22.677
441 1 1 0 1 -3.28264 17.0193 0.468234
442 1 1 0 1 -3.66265 20.2306 2.7836
443 1 1 0 1 -4.44555 19.7703 2.30101
444 1 1 0 1 -3.51746 20.9374 3.6529
445 1 1 0 1 -5.28984 20.0784 4.0938
446 1 1 0 1 -4.36149 15.4312 6.55245
447 1 1 0 1 -3.57834 21.0146 4.99878
448 1 1 0 1 -3.31917 18.4885 5.89871
449 1 1 0 1 -4.2493 19.7504 8.25322
450 1 1 0 1 -3.31459 19.5676 8.62278
451 1 1 0 1 -3.31459 19.5676 11.3772
452 1 1 0 1 -4.2493 19.7504 11.7468
453 1 1 0 1 -3.31917 18.4885 14.1013
454 1 1 0 1 -3.57834 21.0146 15.0012
455 1 1 0 1 -4.36149 15.4312 13.4475
456 1 1 0 1 -5.28984 20.0784 15.9062
457 1 1 0 1 -3.51746 20.9374 16.3471
458 1 1 0 1 -4.44555 19.7703 17.699
459 1 1 0 1 -3.66265 20.2306 17.2164
460 1 1 0 1 -3.28264 17.0193 19.5318
461 1 1 0 1 -3.77138 20.4503 18.6207
462 1 1 0 1 -3.77138 20.4503 23.3793
463 1 1 0 1 -3.10146 23.2018 -0.542422
464 1 1 0 1 -2.71998 20.9396 0.135713
465 1 1 0 1 -2.40407 20.9545 4.18098
466 1 1 0 1 -1.90802 22.1171 3.35712
467 1 1 0 1 -3.96446 19.6823 4.85324
468 1 1 0 1 -2.74237 21.0971 5.588
469 1 1 0 1 -4.4931 19.1512 5.75684
470 1 1 0 1 -3.01127 20.9648 6.52712
471 1 1 0 1 -3.57286 19.3883 7.62947
472 1 1 0 1 -2.61456 21.514 9.35975
473 1 1 0 1 -2.61456 21.514 10.6403
474 1 1 0 1 -3.57286 19.3883 12.3705
475 1 1 0 1 -3.01127 20.9648 13.4729
476 1 1 0 1 -4.4931 19.1512 14.2432
477 1 1 0 1 -2.74237 21.0971 14.412
478 1 1 0 1 -3.96446 19.6823 15.1468
479 1 1 0 1 -1.90802 22.1171 16.6429
480 1 1 0 1 -2.40407 20.9545 15.819
481 1 1 0 1 -2.71998 20.9396 19.8643
482 1 1 0 1 -3.10146 23.2018 20.5424
483 1 1 0 1 -2.01349 23.0868 20.2007
484 1 1 0 1 -2.01349 23.0868 21.7993
485 1 1 0 1 -2.77321 -0.0449269 1.09121
486 1 1 0 1 -3.01767 0.272654 -0.079778
487 1 1 0 1 -1.09545 0.141911 1.61178
488 1 1 0 1 -1.11521 0.64179 2.68353
489 1 1 0 1 -1.68873 -0.67492 4.86992
490 1 1 0 1 -1.79133 1.24661 5.10031
491 1 1 0 1 -1.9427 0.354813 6.0151
492 1 1 0 1 -0.939506 -0.0227894 6.95797
493 1 1 0 1 -1.08479 -0.25527 8.12146
494 1 1 0 1 -1.95264 0.396926 9.0741
495 1 1 0 1 -1.95264 0.396926 10.9259
496 1 1 0 1 -1.08479 -0.25527 11.8785
497 1 1 0 1 -0.939506 -0.0227893 13.042
498 1 1 0 1 -1.9427 0.354813 13.9849
499 1 1 0 1 -1.79133 1.24661 14.8997
500 1 1 0 1 -1.68873 -0.67492 15.1301
501 1 1 0 1 -1.11521 0.64179 17.3165
502 1 1 0 1 -1.09545 0.141911 18.3882
503 1 1 0 1 -3.01767 0.272654 20.0798
504 1 1 0 1 -2.77321 -0.0449271 18.9088
505 1 1 0 1 -2.7277 1.54669 19.5942
506 1 1 0 1 -2.72771 1.54669 22.4058
507 1 1 0 1 -1.07785 1.37341 0.16541
508 1 1 0 1 -1.63247 1.82164 1.01803
509 1 1 0 1 -0.631571 1.49215 1.86805
510 1 1 0 1 -0.176389 1.19815 3.31337
511 1 1 0 1 -0.277307 1.39281 4.60159
512 1 1 0 1 -0.293486 1.59696 5.70748
513 1 1 0 1 -0.427333 1.06963 6.67705
514 1 1 0 1 -0.592339 0.857553 7.74894
515 1 1 0 1 -1.01155 0.637399 8.68086
516 1 1 0 1 -0.62116 1.50976 9.44188
517 1 1 0 1 -0.621159 1.50976 10.5581
518 1 1 0 1 -1.01155 0.637399 11.3191
519 1 1 0 1 -0.592339 0.857553 12.2511
520 1 1 0 1 -0.427333 1.06963 13.3229
521 1 1 0 1 -0.293486 1.59696 14.2925
522 1 1 0 1 -0.277307 1.39281 15.3984
523 1 1 0 1 -0.176389 1.19815 16.6866
524 1 1 0 1 -0.631571 1.49215 18.132
525 1 1 0 1 -1.63247 1.82164 18.982
526 1 1 0 1 -1.07785 1.37341 19.8346
527 1 1 0 1 -0.2025 1.31049 20.4127
528 1 1 0 1 -0.2025 1.31049 21.5873
529 1 1 0 1 -1.98605 2.26922 0.0105176
530 1 1 0 1 -2.54939 2.60033 1.13141
531 1 1 0 1 -1.80776 0.918116 1.83176
532 1 1 0 1 -2.64836 2.00886 2.16268
533 1 1 0 1 -1.21982 1.26617 4.10916
534 1 1 0 1 -2.57972 2.65832 4.4276
535 1 1 0 1 -1.411 1.24443 6.22668
536 1 1 0 1 -1.46193 1.67368 7.48201
537 1 1 0 1 -1.08284 1.78615 8.50203
538 1 1 0 1 -2.60051 1.37374 9.26736
539 1 1 0 1 -2.60051 1.37373 10.7326
540 1 1 0 1 -1.08284 1.78615 11.498
541 1 1 0 1 -1.46193 1.67368 12.518
542 1 1 0 1 -1.411 1.24443 13.7733
543 1 1 0 1 -2.57972 2.65832 15.5724
544 1 1 0 1 -1.21982 1.26617 15.8908
545 1 1 0 1 -2.64836 2.00886 17.8373
546 1 1 0 1 -1.80776 0.918116 18.1682
547 1 1 0 1 -2.54939 2.60034 18.8686
548 1 1 0 1 -1.98605 2.26922 19.9895
549 1 1 0 1 -1.11508 2.5604 20.481
550 1 1 0 1 -1.11508 2.5604 21.519
551 1 1 0 1 -0.971755 2.94368 0.753689
552 1 1 0 1 -0.443291 3.38161 1.49241
553 1 1 0 1 -0.265908 2.23781 2.70077
554 1 1 0 1 -0.184665 3.37763 2.50976
555 1 1 0 1 -0.453096 2.81513 4.67156
556 1 1 0 1 -0.308373 3.36542 5.5935
557 1 1 0 1 -0.807495 3.52253 6.60765
558 1 1 0 1 -0.903659 2.63196 7.90955
559 1 1 0 1 -1.15279 2.95011 8.91896
560 1 1 0 1 -1.62146 1.84443 9.32779
561 1 1 0 1 -1.62146 1.84443 10.6722
562 1 1 0 1 -1.15278 2.95012 11.081
563 1 1 0 1 -0.903659 2.63196 12.0904
564 1 1 0 1 -0.807495 3.52253 13.3924
565 1 1 0 1 -0.308373 3.36542 14.4065
566 1 1 0 1 -0.453096 2.81513 15.3284
567 1 1 0 1 -0.184664 3.37763 17.4902
568 1 1 0 1 -0.265908 2.23781 17.2992
569 1 1 0 1 -0.443291 3.38161 18.5076
570 1 1 0 1 -0.971755 2.94368 19.2463
571 1 1 0 1 -0.350179 3.50548 20.3315
572 1 1 0 1 -0.350179 3.50548 21.6685
573 1 1 0 1 -2.14336 4.51043 0.783906
574 1 1 0 1 -2.61889 4.53411 2.34682
575 1 1 0 1 -1.44059 3.76484 2.05796
576 1 1 0 1 -1.96889 3.76363 3.492
577 1 1 0 1 -1.16445 3.51844 3.95619
578 1 1 0 1 -2.30845 3.74427 5.50744
579 1 1 0 1 -1.35867 4.29982 6.06719
580 1 1 0 1 -1.78861 4.3477 7.05733
581 1 1 0 1 -1.62193 3.52456 7.78672
582 1 1 0 1 -1.75289 3.87533 8.87982
583 1 1 0 1 -1.75289 3.87533 11.1202
584 1 1 0 1 -1.62193 3.52456 12.2133
585 1 1 0 1 -1.78861 4.3477 12.9427
586 1 1 0 1 -1.35867 4.29982 13.9328
587 1 1 0 1 -2.30845 3.74427 14.4926
588 1 1 0 1 -1.16445 3.51844 16.0438
589 1 1 0 1 -1.96889 3.76363 16.508
590 1 1 0 1 -1.44059 3.76484 17.942
591 1 1 0 1 -2.61889 4.53411 17.6532
592 1 1 0 1 -2.14336 4.51043 19.2161
593 1 1 0 1 -1.43823 3.48414 20.107
594 1 1 0 1 -1.43823 3.48414 21.893
595 1 1 0 1 -1.03574 4.43362 -0.285354
596 1 1 0 1 -0.36476 5.10152 1.2702
597 1 1 0 1 -1.41188 5.17765 2.53642
598 1 1 0 1 -0.448288 5.31166 3.01743
599 1 1 0 1 -0.57181 4.70091 4.05619
600 1 1 0 1 -0.271664 5.26274 4.86848
601 1 1 0 1 -0.536145 5.39737 5.98155
602 1 1 0 1 0.622572 5.56036 6.81906
603 1 1 0 1 -0.0808254 4.95292 7.61221
604 1 1 0 1 -0.70657 4.66093 9.4728
605 1 1 0 1 -0.706571 4.66093 10.5272
606 1 1 0 1 -0.0808264 4.95292 12.3878
607 1 1 0 1 0.622573 5.56036 13.1809
608 1 1 0 1 -0.536146 5.39737 14.0184
609 1 1 0 1 -0.271665 5.26274 15.1315
610 1 1 0 1 -0.57181 4.70091 15.9438
611 1 1 0 1 -0.448288 5.31166 16.9826
612 1 1 0 1 -1.41188 5.17765 17.4636
613 1 1 0 1 -0.364761 5.10152 18.7298
614 1 1 0 1 -1.03574 4.43362 20.2854
615 1 1 0 1 -1.00947 5.47788 20.5221
616 1 1 0 1 -1.00947 5.47788 21.4779
617 1 1 0 1 -1.21098 5.31489 0.757711
618 1 1 0 1 -2.28532 6.06195 0.980576
619 1 1 0 1 -1.70228 6.27191 2.01859
620 1 1 0 1 -1.87574 6.3512 3.14737
621 1 1 0 1 -0.886942 5.81644 4.11417
622 1 1 0 1 -1.91182 6.33856 4.44029
623 1 1 0 1 -1.34462 5.93328 5.39817
624 1 1 0 1 -1.01262 6.04622 6.80295
625 1 1 0 1 -0.817834 5.98775 8.05424
626 1 1 0 1 -1.0136 6.23903 9.13623
627 1 1 0 1 -1.01361 6.23903 10.8638
628 1 1 0 1 -0.817841 5.98776 11.9458
629 1 1 0 1 -1.01262 6.04622 13.1971
630 1 1 0 1 -1.34462 5.93328 14.6018
631 1 1 0 1 -1.91182 6.33855 15.5597
632 1 1 0 1 -0.886942 5.81644 15.8858
633 1 1 0 1 -1.87574 6.3512 16.8526
634 1 1 0 1 -1.70228 6.2719 17.9814
635 1 1 0 1 -2.28532 6.06195 19.0194
636 1 1 0 1 -1.21098 5.31489 19.2423
637 1 1 0 1 -1.67269 6.25614 20.4627
638 1 1 0 1 -1.67269 6.25614 21.5373
639 1 1 0 1 -0.912726 6.16009 0.291151
640 1 1 0 1 -0.0961592 7.29045 1.34338
641 1 1 0 1 -0.43699 6.86009 2.17159
642 1 1 0 1 -0.499528 7.31152 3.13924
643 1 1 0 1 -1.06336 6.84141 3.91722
644 1 1 0 1 -0.275663 7.41946 4.76852
645 1 1 0 1 -0.316685 6.90029 5.77062
646 1 1 0 1 -0.24385 7.44291 6.87154
647 1 1 0 1 -0.1667 7.23931 7.93851
648 1 1 0 1 -0.694624 7.4283 8.93839
649 1 1 0 1 -0.694622 7.42829 11.0616
650 1 1 0 1 -0.166701 7.23931 12.0615
651 1 1 0 1 -0.243851 7.4429 13.1285
652 1 1 0 1 -0.316687 6.90029 14.2294
653 1 1 0 1 -0.275662 7.41946 15.2315
654 1 1 0 1 -1.06336 6.84141 16.0828
655 1 1 0 1 -0.499529 7.31152 16.8608
656 1 1 0 1 -0.436991 6.86009 17.8284
657 1 1 0 1 -0.0961596 7.29045 18.6566
658 1 1 0 1 -0.912725 6.16009 19.7088
659 1 1 0 1 -0.819181 7.14266 20.4834
660 1 1 0 1 -0.819181 7.14266 21.5166
661 1 1 0 1 -1.64926 7.69649 0.502651
662 1 1 0 1 -0.64313 8.67709 0.527869
663 1 1 0 1 -0.907484 8.18492 1.56625
664 1 1 0 1 -0.552325 8.33633 3.1166
665 1 1 0 1 -1.06083 7.93136 3.88081
666 1 1 0 1 -1.04012 8.2171 5.04321
667 1 1 0 1 -0.361834 8.43957 5.83624
668 1 1 0 1 -0.869828 8.3172 7.11379
669 1 1 0 1 -0.240093 8.65872 8.02538
670 1 1 0 1 -1.13879 8.24513 9.27245
671 1 1 0 1 -1.13876 8.24512 10.7276
672 1 1 0 1 -0.240089 8.65872 11.9746
673 1 1 0 1 -0.869824 8.31719 12.8862
674 1 1 0 1 -0.361837 8.43956 14.1637
675 1 1 0 1 -1.04012 8.2171 14.9568
676 1 1 0 1 -1.06083 7.93135 16.1192
677 1 1 0 1 -0.552324 8.33633 16.8834
678 1 1 0 1 -0.907484 8.18492 18.4338
679 1 1 0 1 -0.643129 8.67709 19.4721
680 1 1 0 1 -1.64926 7.69649 19.4973
681 1 1 0 1 -1.18062 8.27826 20.3929
682 1 1 0 1 -1.18062 8.27826 21.6071
683 1 1 0 1 -1.04915 9.71226 0.509007
684 1 1 0 1 -0.618603 9.30159 1.34192
685 1 1 0 1 -1.30578 9.9629 2.1423
686 1 1 0 1 -0.695708 9.01367 2.31109
687 1 1 0 1 -1.24651 9.57366 3.21356
688 1 1 0 1 -0.690553 8.94252 4.00043
689 1 1 0 1 -0.659348 9.21404 4.97262
690 1 1 0 1 -0.433646 9.3584 6.97574
691 1 1 0 1 -0.690659 9.75692 7.94474
692 1 1 0 1 -0.760239 9.14378 8.84966
693 1 1 0 1 -0.760221 9.14378 11.1503
694 1 1 0 1 -0.690682 9.75692 12.0553
695 1 1 0 1 -0.433652 9.3584 13.0242
696 1 1 0 1 -0.65935 9.21404 15.0274
697 1 1 0 1 -0.690555 8.94252 15.9996
698 1 1 0 1 -1.24651 9.57366 16.7864
699 1 1 0 1 -0.695709 9.01367 17.6889
700 1 1 0 1 -1.30578 9.9629 17.8577
701 1 1 0 1 -0.618603 9.30159 18.6581
702 1 1 0 1 -1.04915 9.71226 19.491
703 1 1 0 1 -0.29962 9.26457 20.3494
704 1 1 0 1 -0.29962 9.26457 21.6506
705 1 1 0 1 -1.27231 10.8425 0.307587
706 1 1 0 1 -0.712044 10.433 1.38138
707 1 1 0 1 -1.34522 11.1363 2.02463
708 1 1 0 1 -0.635973 10.3644 2.85659
709 1 1 0 1 -1.26738 10.6136 3.67493
710 1 1 0 1 -0.601998 10.0497 4.13726
711 1 1 0 1 -1.21641 10.8552 5.69091
712 1 1 0 1 -0.966515 10.1109 6.50022
713 1 1 0 1 -0.908096 10.674 7.68019
714 1 1 0 1 -1.61564 10.6449 9.09835
715 1 1 0 1 -1.61564 10.6449 10.9016
716 1 1 0 1 -0.908093 10.674 12.3198
717 1 1 0 1 -0.966514 10.1109 13.4998
718 1 1 0 1 -1.21641 10.8552 14.3091
719 1 1 0 1 -0.601996 10.0497 15.8627
720 1 1 0 1 -1.26738 10.6136 16.3251
721 1 1 0 1 -0.635974 10.3644 17.1434
722 1 1 0 1 -1.34522 11.1363 17.9754
723 1 1 0 1 -0.712045 10.433 18.6186
724 1 1 0 1 -1.27231 10.8425 19.6924
725 1 1 0 1 -0.980177 10.1354 20.44
726 1 1 0 1 -0.980177 10.1354 21.56
727 1 1 0 1 -1.05744 11.8858 -0.121927
728 1 1 0 1 -0.519395 11.4345 1.32931
729 1 1 0 1 -1.64413 12.2143 2.17516
730 1 1 0 1 -0.477386 11.4702 2.78524
731 1 1 0 1 -1.18518 11.8076 3.6115
732 1 1 0 1 -0.652304 11.0676 4.57011
733 1 1 0 1 -0.696019 11.7692 5.65475
734 1 1 0 1 -0.311832 11.1987 6.88517
735 1 1 0 1 -0.349613 11.7076 7.91152
736 1 1 0 1 -0.622665 11.3409 9.38725
737 1 1 0 1 -0.622667 11.3409 10.6128
738 1 1 0 1 -0.349611 11.7076 12.0885
739 1 1 0 1 -0.31183 11.1987 13.1148
740 1 1 0 1 -0.696014 11.7692 14.3452
741 1 1 0 1 -0.652305 11.0676 15.4299
742 1 1 0 1 -1.18518 11.8076 16.3885
743 1 1 0 1 -0.477385 11.4702 17.2148
744 1 1 0 1 -1.64413 12.2143 17.8248
745 1 1 0 1 -0.519394 11.4345 18.6707
746 1 1 0 1 -1.05744 11.8858 20.1219
747 1 1 0 1 -0.501135 11.1107 20.532
748 1 1 0 1 -0.501135 11.1107 21.468
749 1 1 0 1 -1.10191 13.1369 0.199417
750 1 1 0 1 -0.943637 12.516 1.11386
751 1 1 0 1 -1.10914 13.1221 2.07486
752 1 1 0 1 -1.2731 12.5783 2.98714
753 1 1 0 1 -1.10167 12.9082 4.12858
754 1 1 0 1 -1.26671 12.5518 5.2081
755 1 1 0 1 -0.388537 12.8411 6.25088
756 1 1 0 1 -1.13048 12.2289 7.36065
757 1 1 0 1 -0.829522 13.2717 8.20337
758 1 1 0 1 -1.23029 12.7122 9.07069
759 1 1 0 1 -1.23028 12.7122 10.9293
760 1 1 0 1 -0.829522 13.2717 11.7966
761 1 1 0 1 -1.13048 12.2289 12.6393
762 1 1 0 1 -0.388537 12.8411 13.7491
763 1 1 0 1 -1.26671 12.5518 14.7919
764 1 1 0 1 -1.10167 12.9082 15.8714
765 1 1 0 1 -1.2731 12.5783 17.0129
766 1 1 0 1 -1.10914 13.1221 17.9251
767 1 1 0 1 -0.943637 12.516 18.8861
768 1 1 0 1 -1.10191 13.1369 19.8006
769 1 1 0 1 -0.292271 12.5387 20.4948
770 1 1 0 1 -0.292271 12.5387 21.5052
771 1 1 0 1 -0.708248 14.1154 0.3312
772 1 1 0 1 -0.393949 13.7904 1.35738
773 1 1 0 1 -1.77082 13.9457 2.01524
774 1 1 0 1 -0.216148 13.399 3.0886
775 1 1 0 1 -1.40896 14.3494 4.06951
776 1 1 0 1 -0.677857 13.5741 5.48162
777 1 1 0 1 -0.801307 14.0723 6.38755
778 1 1 0 1 -0.237113 13.6524 7.07263
779 1 1 0 1 -0.236089 14.3924 8.42955
780 1 1 0 1 -0.725541 13.7919 9.44654
781 1 1 0 1 -0.725543 13.7919 10.5535
782 1 1 0 1 -0.23609 14.3924 11.5705
783 1 1 0 1 -0.237115 13.6524 12.9274
784 1 1 0 1 -0.801305 14.0723 13.6125
785 1 1 0 1 -0.677856 13.5741 14.5184
786 1 1 0 1 -1.40896 14.3494 15.9305
787 1 1 0 1 -0.216147 13.399 16.9114
788 1 1 0 1 -1.77082 13.9457 17.9848
789 1 1 0 1 -0.393949 13.7904 18.6426
790 1 1 0 1 -0.708248 14.1154 19.6688
791 1 1 0 1 -1.71986 13.7895 20.2848
792 1 1 0 1 -1.71986 13.7895 21.7152
793 1 1 0 1 -2.40064 14.483 1.54887
794 1 1 0 1 0.21006 14.6933 1.42793
795 1 1 0 1 -0.0863002 14.9106 2.46037
796 1 1 0 1 -0.607778 14.6979 3.43454
797 1 1 0 1 -0.704848 15.1163 4.52473
798 1 1 0 1 -1.17745 14.516 5.35586
799 1 1 0 1 -1.2274 15.2218 6.36999
800 1 1 0 1 -1.24674 14.6923 7.3534
801 1 1 0 1 -0.869621 15.3879 8.35813
802 1 1 0 1 -1.19156 14.9222 9.24504
803 1 1 0 1 -1.19156 14.9222 10.755
804 1 1 0 1 -0.869622 15.3879 11.6419
805 1 1 0 1 -1.24674 14.6923 12.6466
806 1 1 0 1 -1.2274 15.2218 13.63
807 1 1 0 1 -1.17745 14.516 14.6441