ITEM: TIMESTEP
16000
ITEM: NUMBER OF ATOMS
6752
ITEM: BOX BOUNDS pp pp pp
0.0000000000000000e+00 2.2000000000000000e+01
0.0000000000000000e+00 2.2000000000000000e+01
0.0000000000000000e+00 2.2000000000000000e+01
ITEM: ATOMS id mol type q mass xu yu zu
1 1 1 0 1 -5.54992 -5.84075 4.47935
2 1 1 0 1 -3.07738 1.42148 -0.218576
3 1 1 0 1 -3.84327 1.47941 6.66488
4 1 1 0 1 -8.49013 -2.46599 3.24524
5 1 1 0 1 0.0443718 5.261 3.21231
6 1 1 0 1 -7.89316 0.317339 8.7177
7 1 1 0 1 0.762993 6.27848 3.60911
8 1 1 0 1 1.84639 -3.59904 11.2698
9 1 1 0 1 1.27786 2.7881 11.0773
10 1 1 0 1 -8.10707 -0.145414 10.6314
11 1 1 0 1 -0.260222 3.0879 8.42331
12 1 1 0 1 -7.12001 -2.44417 15.7242
13 1 1 0 1 0.199192 3.2716 12.4585
14 1 1 0 1 -1.62263 11.9831 12.9247
15 1 1 0 1 -7.44982 1.95517 10.8368
16 1 1 0 1 -5.40166 -2.7769 13.8212
17 1 1 0 1 -0.246799 0.0528425 16.0556
18 1 1 0 1 -3.75276 -0.603204 21.1674
19 1 1 0 1 -0.773527 6.20491 17.1911
20 1 1 0 1 1.08684 0.476902 17.3262
21 1 1 0 1 -6.71043 6.10069 15.6494
22 1 1 0 1 -6.16946 10.0011 20.0576
23 1 1 0 1 -7.61331 -1.85336 4.015
24 1 1 0 1 -2.1668 3.18896 0.204038
25 1 1 0 1 -1.31048 -0.809557 -6.59925
26 1 1 0 1 -0.0456504 -1.10527 6.55764
27 1 1 0 1 -9.21938 -2.23749 11.4123
28 1 1 0 1 -4.26813 3.93832 0.938309
29 1 1 0 1 -2.6839 -1.75316 12.3936
30 1 1 0 1 -5.14196 0.402532 12.906
31 1 1 0 1 -3.18159 6.95244 12.639
32 1 1 0 1 -6.1539 -4.01148 4.62061
33 1 1 0 1 -8.90957 1.83362 10.7431
34 1 1 0 1 -3.00486 6.01842 14.7715
35 1 1 0 1 -1.19754 1.53912 12.1981
36 1 1 0 1 1.13904 -1.31271 6.37926
37 1 1 0 1 -6.56013 -1.6058 17.2968
38 1 1 0 1 1.05468 -1.79945 20.1045
39 1 1 0 1 -0.809794 2.10647 10.2632
40 1 1 0 1 -0.329128 6.33026 20.46
41 1 1 0 1 -5.84796 0.596749 13.6885
42 1 1 0 1 -9.34489 0.936482 25.1933
43 1 1 0 1 -1.53646 10.3658 24.5697
44 1 1 0 1 -2.69032 9.66478 17.0326
45 1 1 0 1 -11.9401 6.39459 7.20755
46 1 1 0 1 -2.94408 3.65564 9.69041
47 1 1 0 1 0.0597581 2.43778 -2.91428
48 1 1 0 1 -10.7952 6.54368 2.60934
49 1 1 0 1 -0.434836 5.29277 -1.66879
50 1 1 0 1 -3.30433 5.55222 0.306465
51 1 1 0 1 -3.23134 3.10873 6.15022
52 1 1 0 1 1.50001 5.25753 14.1124
53 1 1 0 1 -3.82427 1.02612 5.64045
54 1 1 0 1 -6.10237 -0.555423 13.7182
55 1 1 0 1 -5.87844 3.73442 9.95109
56 1 1 0 1 -0.528969 0.968267 9.60958
57 1 1 0 1 -0.462067 10.6485 14.2018
58 1 1 0 1 -7.059 14.0129 12.4527
59 1 1 0 1 -5.22226 1.87708 10.6567
60 1 1 0 1 -0.791863 3.57611 20.742
61 1 1 0 1 -7.26544 5.94628 11.7392
62 1 1 0 1 0.879718 1.23604 21.4487
63 1 1 0 1 -1.71564 9.28535 5.68561
64 1 1 0 1 -2.72596 -0.874474 14.9275
65 1 1 0 1 -8.03337 5.80506 19.1056
66 1 1 0 1 -7.12146 2.24833 23.1717
67 1 1 0 1 -3.19013 0.573867 -2.9733
68 1 1 0 1 -4.15273 4.29449 -5.52933
69 1 1 0 1 -4.44853 6.24489 -1.26151
70 1 1 0 1 -3.49384 7.47445 6.68912
71 1 1 0 1 1.11006 2.46287 6.49539
72 1 1 0 1 -11.8558 4.72407 3.19207
73 1 1 0 1 4.88388 1.07285 11.7364
74 1 1 0 1 -4.50454 2.60827 10.8161
75 1 1 0 1 -0.602124 2.33093 12.9774
76 1 1 0 1 -10.0839 -1.19152 10.3387
77 1 1 0 1 -5.73659 -2.74 6.36082
78 1 1 0 1 -0.253296 5.69025 10.9484
79 1 1 0 1 -6.53777 2.8066 13.5825
80 1 1 0 1 3.64091 1.85846 12.4838
81 1 1 0 1 -0.70035 8.84723 15.6632
82 1 1 0 1 -3.01005 -3.87512 13.5333
83 1 1 0 1 -2.61389 -2.13953 16.4387
84 1 1 0 1 1.29261 5.05087 17.4118
85 1 1 0 1 -4.74803 2.32652 25.3279
86 1 1 0 1 -5.83924 0.855304 19.7282
87 1 1 0 1 -2.65412 -0.625472 21.1826
88 1 1 0 1 -3.5893 10.181 21.9438
89 1 1 0 1 -3.03323 9.71081 0.649001
90 1 1 0 1 -0.727816 9.6345 4.67348
91 1 1 0 1 -6.01938 0.784715 8.21586
92 1 1 0 1 -6.03402 6.67562 6.66324
93 1 1 0 1 -3.72004 8.03776 9.03113
94 1 1 0 1 -1.90773 -2.76609 4.76648
95 1 1 0 1 -5.65866 7.74952 6.33274
96 1 1 0 1 -2.10188 5.24618 10.5623
97 1 1 0 1 -1.88263 10.6262 13.2411
98 1 1 0 1 0.840115 4.70915 6.37691
99 1 1 0 1 -1.12455 4.90251 11.0017
100 1 1 0 1 0.823862 -0.21203 6.36595
101 1 1 0 1 -5.2322 6.68364 9.66066
102 1 1 0 1 -4.75512 7.53255 10.7849
103 1 1 0 1 -5.00743 9.50321 9.13578
104 1 1 0 1 -5.07973 12.1388 12.5964
105 1 1 0 1 -2.43042 8.36832 4.48467
106 1 1 0 1 -0.643926 3.49736 22.394
107 1 1 0 1 -6.35326 11.5305 16.4332
108 1 1 0 1 -1.90852 10.3113 16.8898
109 1 1 0 1 -6.13341 6.89057 21.0655
110 1 1 0 1 -8.21066 8.84009 22.1913
111 1 1 0 1 -4.7787 2.66481 1.65825
112 1 1 0 1 -3.05655 4.46153 -2.20098
113 1 1 0 1 0.626314 14.5571 10.0524
114 1 1 0 1 -0.275129 7.29581 4.50743
115 1 1 0 1 -2.3492 11.7157 4.73841
116 1 1 0 1 -0.53773 13.5317 5.06563
117 1 1 0 1 -4.67196 9.18348 5.57192
118 1 1 0 1 -4.3386 0.306923 8.1503
119 1 1 0 1 -2.63433 -1.05271 9.70639
120 1 1 0 1 -3.36631 2.21495 9.95664
121 1 1 0 1 0.544236 3.62983 6.55144
122 1 1 0 1 -4.25396 6.29673 9.54115
123 1 1 0 1 -4.00669 7.40971 12.008
124 1 1 0 1 -6.35533 9.8482 14.0099
125 1 1 0 1 -7.62084 9.57659 7.02527
126 1 1 0 1 -6.68988 6.30041 18.5322
127 1 1 0 1 -2.17498 9.13092 19.2073
128 1 1 0 1 -9.36649 13.5402 12.167
129 1 1 0 1 -2.64307 6.22009 21.7451
130 1 1 0 1 -7.35226 6.17577 17.6239
131 1 1 0 1 -7.29979 2.98298 12.8291
132 1 1 0 1 -5.26738 4.98295 24.8496
133 1 1 0 1 -0.229513 8.7522 1.38422
134 1 1 0 1 -6.87977 7.25605 6.51214
135 1 1 0 1 -7.38616 -0.126012 0.130827
136 1 1 0 1 -4.59853 11.3535 1.6906
137 1 1 0 1 -7.11407 6.15968 6.79425
138 1 1 0 1 -9.1165 9.69495 10.7776
139 1 1 0 1 1.77407 6.12768 3.30161
140 1 1 0 1 -7.88884 7.71348 4.03968
141 1 1 0 1 5.0671 6.91911 -0.789884
142 1 1 0 1 -4.07819 3.15533 13.0207
143 1 1 0 1 -4.912 4.79601 14.6956
144 1 1 0 1 1.41992 1.67207 9.30903
145 1 1 0 1 -5.83214 8.35415 18.8093
146 1 1 0 1 -5.41135 14.0484 21.1854
147 1 1 0 1 -3.02 17.0908 13.8069
148 1 1 0 1 -7.61446 14.8766 12.1272
149 1 1 0 1 -4.09427 7.6313 22.3359
150 1 1 0 1 -8.31324 8.27894 10.9498
151 1 1 0 1 -5.94984 3.41492 21.1017
152 1 1 0 1 -5.17248 5.37738 18.8535
153 1 1 0 1 -3.4082 6.02571 18.8621
154 1 1 0 1 -3.56137 4.7507 29.0973
155 1 1 0 1 -1.09734 4.73302 -4.98708
156 1 1 0 1 -2.09915 5.41664 -0.576529
157 1 1 0 1 -2.33568 8.86548 0.488855
158 1 1 0 1 -0.730964 7.69784 3.66266
159 1 1 0 1 -7.08673 11.2423 1.19044
160 1 1 0 1 -6.78315 1.64884 6.33696
161 1 1 0 1 -0.159955 10.7313 3.13582
162 1 1 0 1 -2.33491 4.50545 9.87791
163 1 1 0 1 2.33506 4.11567 8.52747
164 1 1 0 1 -6.21128 4.36487 11.6181
165 1 1 0 1 -1.51896 3.10597 8.31078
166 1 1 0 1 -2.63714 9.11607 18.1853
167 1 1 0 1 0.317131 12.8538 16.487
168 1 1 0 1 -3.50857 9.53808 19.3131
169 1 1 0 1 -6.53487 11.362 17.7611
170 1 1 0 1 1.13364 6.38497 19.7577
171 1 1 0 1 -1.118 10.6832 20.8983
172 1 1 0 1 -1.33987 9.59715 20.4438
173 1 1 0 1 -1.54144 9.18749 15.3168
174 1 1 0 1 2.28035 4.82465 24.8307
175 1 1 0 1 -6.75577 11.0222 21.3511
176 1 1 0 1 0.309139 3.69529 25.2119
177 1 1 0 1 -8.13987 2.24489 0.352082
178 1 1 0 1 -2.04285 14.598 8.01585
179 1 1 0 1 -5.15864 15.3965 -2.52547
180 1 1 0 1 0.394977 13.1815 4.90881
181 1 1 0 1 -4.3706 12.9881 4.73863
182 1 1 0 1 -4.34854 12.8939 7.43238
183 1 1 0 1 -6.41611 11.4655 4.31257
184 1 1 0 1 -4.45162 4.1621 9.05199
185 1 1 0 1 -9.47789 -0.176742 8.78635
186 1 1 0 1 -10.5877 14.4252 7.52516
187 1 1 0 1 -8.00788 14.1002 11.3664
188 1 1 0 1 -2.67108 1.9722 10.6766
189 1 1 0 1 0.0524175 11.8424 12.9874
190 1 1 0 1 -8.13172 6.06046 13.6749
191 1 1 0 1 -2.61075 10.0377 19.6686
192 1 1 0 1 -2.62161 10.6339 17.6619
193 1 1 0 1 -1.21108 5.45516 17.8922
194 1 1 0 1 5.13174 12.4063 23.5312
195 1 1 0 1 -3.57455 8.83965 16.2316
196 1 1 0 1 -0.358066 6.12407 18.2805
197 1 1 0 1 -3.60179 8.89494 17.3896
198 1 1 0 1 5.60132 10.0858 25.3049
199 1 1 0 1 3.68888 7.68985 -1.18435
200 1 1 0 1 3.82867 6.65218 4.99545
201 1 1 0 1 -5.18825 9.96747 -1.39204
202 1 1 0 1 -2.746 7.59143 8.50605
203 1 1 0 1 -6.18779 8.42776 2.96803
204 1 1 0 1 -3.41156 11.9071 9.94227
205 1 1 0 1 -1.28525 7.14061 4.81511
206 1 1 0 1 -1.26819 10.6571 4.41772
207 1 1 0 1 -7.12773 7.07309 2.27062
208 1 1 0 1 -4.52047 5.35699 13.1568
209 1 1 0 1 -5.78904 2.50524 5.94654
210 1 1 0 1 -6.95324 9.53482 11.0616
211 1 1 0 1 0.565594 6.62407 9.49664
212 1 1 0 1 -7.8313 6.65383 9.63579
213 1 1 0 1 2.80213 10.0366 23.3129
214 1 1 0 1 -12.0815 18.3495 18.4093
215 1 1 0 1 -4.30914 9.33887 20.055
216 1 1 0 1 -5.04974 7.21217 18.5214
217 1 1 0 1 -8.10778 15.9246 22.7931
218 1 1 0 1 -1.88117 10.3749 21.3938
219 1 1 0 1 2.11362 12.9192 25.0856
220 1 1 0 1 0.785949 13.1975 23.0981
221 1 1 0 1 6.49618 10.3836 -4.3731
222 1 1 0 1 -6.1238 12.5189 2.28707
223 1 1 0 1 -11.5585 10.4385 2.99808
224 1 1 0 1 -3.69052 8.82317 0.211323
225 1 1 0 1 -6.65283 14.8688 5.82978
226 1 1 0 1 -11.4967 14.5677 8.69191
227 1 1 0 1 -8.08902 15.702 4.80081
228 1 1 0 1 -6.79181 15.8563 6.61361
229 1 1 0 1 1.16494 10.5827 7.26648
230 1 1 0 1 -5.35105 12.9793 7.7906
231 1 1 0 1 -7.17731 12.5607 14.2171
232 1 1 0 1 -0.611567 1.2664 13.6259
233 1 1 0 1 -5.42912 12.0785 11.4096
234 1 1 0 1 -10.4829 8.36621 10.4727
235 1 1 0 1 -3.94133 11.4208 15.58
236 1 1 0 1 -8.94429 14.7046 16.0695
237 1 1 0 1 -8.64749 14.4346 19.0992
238 1 1 0 1 -7.31019 13.5619 13.3264
239 1 1 0 1 -7.23156 11.4289 15.3372
240 1 1 0 1 -5.23869 11.6522 16.6284
241 1 1 0 1 -3.68877 8.37668 20.2452
242 1 1 0 1 -0.638562 5.13359 24.1734
243 1 1 0 1 -1.96109 14.8217 5.17767
244 1 1 0 1 -2.57328 15.866 -0.616052
245 1 1 0 1 -5.67269 15.506 0.925162
246 1 1 0 1 -1.78677 10.5581 5.85644
247 1 1 0 1 -6.2882 12.29 6.24517
248 1 1 0 1 -1.50956 2.9923 6.03197
249 1 1 0 1 -8.84092 13.0575 7.86691
250 1 1 0 1 -4.1943 5.51455 8.41481
251 1 1 0 1 -3.67247 7.95358 5.81855
252 1 1 0 1 -1.15272 5.061 5.53826
253 1 1 0 1 -0.186137 0.932837 14.8637
254 1 1 0 1 0.692561 15.1845 14.7523
255 1 1 0 1 -8.14669 5.24959 7.19035
256 1 1 0 1 -9.72395 15.6654 10.2717
257 1 1 0 1 0.626213 16.2226 17.6728
258 1 1 0 1 -3.55414 13.5356 14.9754
259 1 1 0 1 -3.38798 14.6823 20.3574
260 1 1 0 1 -1.81865 14.0841 18.409
261 1 1 0 1 -2.25137 7.46176 17.2561
262 1 1 0 1 -2.78125 13.1979 22.0607
263 1 1 0 1 1.55026 12.6107 17.5628
264 1 1 0 1 -0.246111 17.9475 23.9977
265 1 1 0 1 -3.1581 14.1423 -0.845515
266 1 1 0 1 4.59541 15.3531 3.04689
267 1 1 0 1 -2.1664 16.7351 7.18219
268 1 1 0 1 -4.9981 7.06356 -0.823731
269 1 1 0 1 0.25744 8.63803 11.6036
270 1 1 0 1 -2.29156 14.606 -0.263686
271 1 1 0 1 -4.11061 4.08167 10.1076
272 1 1 0 1 -9.06161 11.3448 13.206
273 1 1 0 1 -5.66664 11.8327 7.50344
274 1 1 0 1 -9.12485 9.79086 9.56917
275 1 1 0 1 -9.48835 6.68988 11.7604
276 1 1 0 1 -2.23734 12.6858 13.6063
277 1 1 0 1 -2.66111 9.79202 11.6986
278 1 1 0 1 2.11331 11.9218 13.495
279 1 1 0 1 -5.17524 13.529 12.4381
280 1 1 0 1 -6.36877 12.9651 7.25222
281 1 1 0 1 -1.0307 9.93495 25.6523
282 1 1 0 1 -7.15852 13.3886 11.1173
283 1 1 0 1 -0.928558 13.6477 13.3602
284 1 1 0 1 -3.45787 12.7172 17.1155
285 1 1 0 1 -6.8914 9.62219 16.7246
286 1 1 0 1 -3.24175 11.4334 18.0646
287 1 1 0 1 -4.26883 19.3664 3.90398
288 1 1 0 1 -0.825347 16.9266 0.629036
289 1 1 0 1 -6.20197 2.84807 4.46499
290 1 1 0 1 -2.8568 9.28382 3.85337
291 1 1 0 1 -9.24316 8.2015 9.93979
292 1 1 0 1 -9.32329 14.46 8.95996
293 1 1 0 1 0.684319 7.40068 5.90523
294 1 1 0 1 -1.21423 13.3919 8.57443
295 1 1 0 1 -5.07028 8.46106 13.0698
296 1 1 0 1 -2.41961 12.4928 10.8029
297 1 1 0 1 -7.54675 12.2684 6.40273
298 1 1 0 1 -8.72535 6.77717 16.5059
299 1 1 0 1 -0.154101 17.4281 14.459
300 1 1 0 1 0.871099 19.5106 21.0397
301 1 1 0 1 -5.8513 16.6138 16.6404
302 1 1 0 1 -6.20809 14.6412 15.7726
303 1 1 0 1 -6.58755 16.0389 9.39651
304 1 1 0 1 0.865322 9.608 6.75865
305 1 1 0 1 5.04808 11.1721 15.1767
306 1 1 0 1 0.44321 14.1695 23.4468
307 1 1 0 1 0.808261 14.2156 15.0109
308 1 1 0 1 1.62915 22.7308 31.9923
309 1 1 0 1 -2.57404 15.1546 3.57435
310 1 1 0 1 1.48541 14.5058 4.64637
311 1 1 0 1 -8.13161 14.5969 -1.29164
312 1 1 0 1 -9.3392 7.26496 3.29011
313 1 1 0 1 -8.27607 14.0248 1.55829
314 1 1 0 1 0.291294 13.1942 3.70507
315 1 1 0 1 -1.18452 6.05823 6.75553
316 1 1 0 1 -7.48822 13.7718 3.20817
317 1 1 0 1 -6.69428 13.3527 8.75338
318 1 1 0 1 -1.76859 14.2461 10.2638
319 1 1 0 1 -3.67901 12.6677 6.41991
320 1 1 0 1 1.27938 20.6574 9.05356
321 1 1 0 1 -4.43807 16.2342 12.264
322 1 1 0 1 -1.23908 11.1064 16.8179
323 1 1 0 1 -5.01448 15.0599 12.8466
324 1 1 0 1 -3.87985 10.4709 7.05306
325 1 1 0 1 -0.102235 13.8981 8.79365
326 1 1 0 1 -7.3122 15.5008 19.4136
327 1 1 0 1 -5.27372 14.4025 19.8572
328 1 1 0 1 -3.3243 17.2081 19.7101
329 1 1 0 1 3.9384 11.6908 21.974
330 1 1 0 1 1.09626 14.7416 22.0347
331 1 1 0 1 -4.43433 14.917 8.13219
332 1 1 0 1 -2.24297 21.0573 4.82653
333 1 1 0 1 -4.24086 11.8066 7.85006
334 1 1 0 1 -5.17044 15.7133 2.40566
335 1 1 0 1 -2.89736 13.6733 7.72333
336 1 1 0 1 -7.07297 11.4234 6.0648
337 1 1 0 1 -2.40139 9.71949 6.24489
338 1 1 0 1 -1.12561 13.4281 9.80867
339 1 1 0 1 -8.39311 11.6829 6.18402
340 1 1 0 1 2.64215 9.43437 8.46158
341 1 1 0 1 -6.87067 4.1828 8.25876
342 1 1 0 1 -5.12102 13.5575 13.9898
343 1 1 0 1 -3.56889 13.3138 5.46508
344 1 1 0 1 -5.95381 12.7578 12.5849
345 1 1 0 1 -6.92696 18.3749 14.7976
346 1 1 0 1 5.78507 17.1387 17.6376
347 1 1 0 1 1.34853 16.58 19.7587
348 1 1 0 1 -0.981132 11.3623 19.7372
349 1 1 0 1 -0.716671 18.2607 16.3104
350 1 1 0 1 -0.327839 15.593 20.0716
351 1 1 0 1 -8.49917 19.2272 17.1501
352 1 1 0 1 -1.07262 17.8069 26.5881
353 1 1 0 1 -7.57154 18.4995 -1.11942
354 1 1 0 1 3.25964 18.3012 1.71197
355 1 1 0 1 -5.75953 10.6198 5.02135
356 1 1 0 1 -5.70304 11.382 5.76179
357 1 1 0 1 0.219987 16.4732 4.46564
358 1 1 0 1 -2.07793 13.7078 6.12102
359 1 1 0 1 -6.43615 15.2729 4.229
360 1 1 0 1 -2.06986 12.9192 7.83365
361 1 1 0 1 -4.72501 20.812 13.4542
362 1 1 0 1 0.00481587 11.3331 9.89645
363 1 1 0 1 3.31602 13.1443 8.08297
364 1 1 0 1 4.09695 15.2919 10.8889
365 1 1 0 1 -2.67312 9.49667 5.30242
366 1 1 0 1 -7.88381 16.4116 14.2656
367 1 1 0 1 -1.29959 10.2305 9.46448
368 1 1 0 1 -3.18287 20.5343 17.2672
369 1 1 0 1 -4.72314 10.3407 11.7569
370 1 1 0 1 -3.19367 5.17523 10.2036
371 1 1 0 1 -2.01168 20.9118 25.1519
372 1 1 0 1 -4.08855 13.3849 19.5424
373 1 1 0 1 -8.60628 12.6544 21.9807
374 1 1 0 1 -3.36973 13.7171 28.4879
375 1 1 0 1 -5.23079 6.88995 5.63415
376 1 1 0 1 -4.18148 16.1062 0.123275
377 1 1 0 1 -10.0196 14.4263 -0.447835
378 1 1 0 1 -7.46891 16.3658 5.58396
379 1 1 0 1 -2.34618 15.7055 -4.02332
380 1 1 0 1 -6.95576 14.9103 2.28576
381 1 1 0 1 -5.10644 12.3256 8.77126
382 1 1 0 1 -13.5878 18.4204 14.2317
383 1 1 0 1 -3.58215 17.8544 12.1033
384 1 1 0 1 0.172391 10.7978 8.93077
385 1 1 0 1 -3.45072 17.5913 10.9132
386 1 1 0 1 -5.19833 13.9513 8.43199
387 1 1 0 1 -8.72867 13.4216 15.7813
388 1 1 0 1 -3.99674 12.2165 18.8343
389 1 1 0 1 -6.36747 13.1753 13.6382
390 1 1 0 1 -0.395202 16.1389 17.3988
391 1 1 0 1 -4.88251 18.6137 19.4981
392 1 1 0 1 -7.43226 15.7893 9.77346
393 1 1 0 1 -4.24003 9.77386 14.4482
394 1 1 0 1 -5.46066 21.4974 20.5054
395 1 1 0 1 -11.937 14.4192 12.5092
396 1 1 0 1 -2.28177 13.0975 24.3051
397 1 1 0 1 -1.422 19.9687 2.80675
398 1 1 0 1 -3.11375 25.5342 1.21412
399 1 1 0 1 -4.53007 15.1595 -1.81393
400 1 1 0 1 -1.82772 8.16673 2.73714
401 1 1 0 1 2.43842 11.703 8.67556
402 1 1 0 1 -5.73075 17.8607 10.078
403 1 1 0 1 0.791068 15.2031 10.8272
404 1 1 0 1 -5.88059 26.8957 5.08433
405 1 1 0 1 -12.2671 14.8467 6.93924
406 1 1 0 1 -6.27685 15.4861 8.55141
407 1 1 0 1 -3.24794 15.5655 6.61003
408 1 1 0 1 -8.84686 19.3299 8.52651
409 1 1 0 1 -7.24664 12.8387 15.2066
410 1 1 0 1 -6.32816 7.01842 8.48272
411 1 1 0 1 1.35097 15.0798 12.2395
412 1 1 0 1 -10.2221 15.4978 7.81642
413 1 1 0 1 -7.52243 16.6991 19.9328
414 1 1 0 1 -5.12522 12.1523 20.6939
415 1 1 0 1 -3.75306 15.437 21.5158
416 1 1 0 1 -4.37522 13.2615 24.2043
417 1 1 0 1 4.06327 17.1891 22.7409
418 1 1 0 1 0.638653 14.1229 26.1497
419 1 1 0 1 -5.07066 16.9359 7.37526
420 1 1 0 1 -4.27397 27.2356 10.4546
421 1 1 0 1 -8.18914 17.1676 6.15746
422 1 1 0 1 -4.74405 8.90251 1.84855
423 1 1 0 1 -3.95463 23.2742 7.70733
424 1 1 0 1 -4.49963 16.6501 9.39672
425 1 1 0 1 -3.21922 16.7932 4.72815
426 1 1 0 1 -3.8151 22.4702 -1.54072
427 1 1 0 1 -3.00142 21.6246 6.98573
428 1 1 0 1 2.30054 20.1444 1.52917
429 1 1 0 1 -5.87721 23.1684 5.82424
430 1 1 0 1 1.82433 16.1839 10.1869
431 1 1 0 1 -9.5916 16.6767 14.9137
432 1 1 0 1 -2.64213 26.1841 15.4714
433 1 1 0 1 -3.94297 17.2036 12.814
434 1 1 0 1 -2.97619 10.6037 13.6959
435 1 1 0 1 -4.02876 9.21328 21.1376
436 1 1 0 1 -8.62374 17.5057 16.378
437 1 1 0 1 -2.62471 15.5489 14.8984
438 1 1 0 1 -4.83138 18.31 17.4196
439 1 1 0 1 -3.26429 20.7067 20.4033
440 1 1 0 1 -4.08153 14.4443 22.2141
441 1 1 0 1 -3.17265 17.8363 -3.71257
442 1 1 0 1 -4.96028 23.2008 7.55975
443 1 1 0 1 -2.69999 19.4903 -0.0996064
444 1 1 0 1 -3.98057 25.1327 -0.702185
445 1 1 0 1 -5.55875 14.6714 3.08699
446 1 1 0 1 -1.23895 5.92231 10.5844
447 1 1 0 1 -3.19682 11.2835 5.92021
448 1 1 0 1 -8.95453 14.7768 10.3875
449 1 1 0 1 -6.57716 19.9468 10.0996
450 1 1 0 1 -1.89602 13.4176 21.6467
451 1 1 0 1 -6.79195 16.2213 10.5486
452 1 1 0 1 -5.4359 15.751 17.367
453 1 1 0 1 -5.68518 18.371 18.3698
454 1 1 0 1 1.79856 25.0518 16.3803
455 1 1 0 1 -4.53308 7.10543 6.46348
456 1 1 0 1 -2.69761 14.2823 12.1421
457 1 1 0 1 -9.6224 24.6083 11.8649
458 1 1 0 1 -10.1567 15.5357 17.338
459 1 1 0 1 -6.29248 16.9821 17.7146
460 1 1 0 1 -1.07552 13.9436 19.886
461 1 1 0 1 0.679016 23.3323 11.2804
462 1 1 0 1 3.79644 22.3569 21.7197
463 1 1 0 1 0.0747118 20.1116 -7.80309
464 1 1 0 1 -0.991948 21.2249 8.94813
465 1 1 0 1 3.7921 25.5811 -0.598502
466 1 1 0 1 1.93909 24.7841 3.49027
467 1 1 0 1 -6.70845 18.5386 9.3127
468 1 1 0 1 -3.506 20.7805 5.09266
469 1 1 0 1 -4.18515 13.9858 10.9091
470 1 1 0 1 -0.220579 21.8275 6.30072
471 1 1 0 1 -4.22493 8.65342 6.39709
472 1 1 0 1 2.81666 27.7601 11.2551
473 1 1 0 1 -4.89104 18.3233 13.3752
474 1 1 0 1 1.20976 17.0889 12.3505
475 1 1 0 1 -1.60833 15.4979 11.957
476 1 1 0 1 1.82217 23.0741 20.9586
477 1 1 0 1 -0.244288 20.2323 15.1603
478 1 1 0 1 -2.12071 22.3275 14.4407
479 1 1 0 1 -3.83866 27.7649 15.4604
480 1 1 0 1 1.84974 21.145 18.0548
481 1 1 0 1 -1.65283 20.2303 15.8682
482 1 1 0 1 -5.9018 29.7406 16.2797
483 1 1 0 1 -1.50185 20.1305 29.2278
484 1 1 0 1 -1.72985 22.6267 25.7025
485 1 1 0 1 -2.48075 -5.68945 3.65356
486 1 1 0 1 -1.16529 5.82472 -5.69034
487 1 1 0 1 -1.78149 6.173 0.29749
488 1 1 0 1 -2.51953 -0.360844 0.573036
489 1 1 0 1 -2.78099 4.45188 3.67605
490 1 1 0 1 -5.85596 -2.73175 2.77459
491 1 1 0 1 -4.64519 3.28825 8.31996
492 1 1 0 1 -0.316528 -6.92545 9.10103
493 1 1 0 1 -1.46962 -1.52273 9.33119
494 1 1 0 1 -3.27758 -0.867491 3.96246
495 1 1 0 1 -4.95789 4.27573 17.2446
496 1 1 0 1 -2.09139 7.70462 14.5105
497 1 1 0 1 -3.3227 -5.11155 11.9711
498 1 1 0 1 -1.17042 1.89171 18.8833
499 1 1 0 1 -1.95095 0.629265 8.88475
500 1 1 0 1 -3.08359 -3.76591 17.128
501 1 1 0 1 -0.172019 -3.70424 10.7939
502 1 1 0 1 1.75346 -8.01209 20.062
503 1 1 0 1 -2.65813 8.46158 17.0283
504 1 1 0 1 -1.10943 0.466322 11.814
505 1 1 0 1 -5.73461 -3.46989 15.1645
506 1 1 0 1 -2.98667 2.37942 19.0471
507 1 1 0 1 -3.65908 2.71674 -2.04223
508 1 1 0 1 -1.59995 2.77672 2.56541
509 1 1 0 1 -2.99837 5.00167 6.20247
510 1 1 0 1 -4.97913 -1.81331 -0.533291
511 1 1 0 1 2.34225 2.57479 1.03262
512 1 1 0 1 -2.28417 8.16662 7.57806
513 1 1 0 1 -0.933845 -4.20775 7.77355
514 1 1 0 1 -2.9303 1.5748 3.9556
515 1 1 0 1 4.29288 6.80406 3.99818
516 1 1 0 1 -6.59855 0.528373 12.932
517 1 1 0 1 -4.55142 -1.18964 9.27525
518 1 1 0 1 -0.240669 2.21386 7.30706
519 1 1 0 1 -0.939017 1.04469 17.9627
520 1 1 0 1 -0.644427 -1.33679 10.2238
521 1 1 0 1 -1.50335 3.96666 10.6878
522 1 1 0 1 -6.67702 7.00207 11.3853
523 1 1 0 1 1.87429 -1.77586 14.5999
524 1 1 0 1 -1.00355 4.10997 15.1258
525 1 1 0 1 -5.35319 3.01186 24.423
526 1 1 0 1 3.99347 -4.58948 23.9259
527 1 1 0 1 0.0794621 5.65562 17.457
528 1 1 0 1 2.63584 5.33339 26.279
529 1 1 0 1 10.5624 6.55559 5.22974
530 1 1 0 1 0.867217 -0.248296 -6.32437
531 1 1 0 1 -1.5383 7.54138 -3.53827
532 1 1 0 1 -0.0549723 -3.2882 1.10703
533 1 1 0 1 -6.0562 4.42652 -2.64964
534 1 1 0 1 -1.66976 0.038754 4.81091
535 1 1 0 1 0.332457 3.32106 1.78075
536 1 1 0 1 -1.40938 6.88493 3.18035
537 1 1 0 1 -2.69979 2.16939 6.0261
538 1 1 0 1 -5.19698 -2.14493 13.1359
539 1 1 0 1 -3.43955 5.07301 16.2916
540 1 1 0 1 -0.437273 4.05873 10.8173
541 1 1 0 1 -6.43726 8.09767 15.3302
542 1 1 0 1 -5.43703 6.25613 12.7878
543 1 1 0 1 -9.37609 8.69833 14.0915
544 1 1 0 1 0.0418344 4.5254 14.0643
545 1 1 0 1 -0.512949 2.93403 14.4126
546 1 1 0 1 0.243047 -0.19413 13.9913
547 1 1 0 1 -0.284775 1.43488 19.5117
548 1 1 0 1 -1.64364 8.29591 27.2324
549 1 1 0 1 -1.89271 7.10967 21.3764
550 1 1 0 1 -3.12423 6.79477 22.5435
551 1 1 0 1 -0.895055 7.76649 -0.699403
552 1 1 0 1 -3.95105 7.3566 -1.4297
553 1 1 0 1 -2.38831 9.70786 1.58589
554 1 1 0 1 0.460747 3.89285 -2.43827
555 1 1 0 1 -0.397162 7.4254 -1.48332
556 1 1 0 1 -1.22236 3.03685 4.52131
557 1 1 0 1 0.874595 2.81358 3.64198
558 1 1 0 1 3.06147 2.38842 7.51105
559 1 1 0 1 -3.06212 -0.254955 11.0661
560 1 1 0 1 -4.18489 -1.69381 4.31501
561 1 1 0 1 -1.1078 2.60393 15.2387
562 1 1 0 1 2.61579 4.72075 14.5863
563 1 1 0 1 -3.06107 1.63109 13.547
564 1 1 0 1 -4.5 -2.79333 9.9895
565 1 1 0 1 6.48175 5.46003 14.8306
566 1 1 0 1 3.58739 7.28367 15.7289
567 1 1 0 1 -0.113005 5.09196 18.65
568 1 1 0 1 5.1703 5.64188 16.9293
569 1 1 0 1 1.63264 5.62221 19.1638
570 1 1 0 1 -5.09414 2.99466 22.5542
571 1 1 0 1 5.12454 6.42878 20.1151
572 1 1 0 1 0.0279888 4.12694 22.038
573 1 1 0 1 -2.02594 7.33958 0.533155
574 1 1 0 1 -1.11596 6.28836 7.85533
575 1 1 0 1 -4.25268 0.607319 -2.67239
576 1 1 0 1 -3.77366 4.69954 -0.187783
577 1 1 0 1 -3.7302 2.59416 6.97026
578 1 1 0 1 -3.26684 11.2771 12.6789
579 1 1 0 1 -4.39742 3.10066 6.08978
580 1 1 0 1 -0.408882 2.63795 11.7629
581 1 1 0 1 -2.66214 9.55123 12.9968
582 1 1 0 1 0.267124 1.91686 9.50245
583 1 1 0 1 -4.34442 4.63011 11.5267
584 1 1 0 1 -3.22663 10.6033 16.5065
585 1 1 0 1 -9.56375 2.85938 15.7998
586 1 1 0 1 1.30652 14.2988 16.7845
587 1 1 0 1 -6.05872 14.0871 13.0485
588 1 1 0 1 -4.89212 3.38051 18.3366
589 1 1 0 1 -7.38566 5.24934 18.577
590 1 1 0 1 -6.51809 7.08383 17.6162
591 1 1 0 1 -4.46666 6.20774 12.4935
592 1 1 0 1 -0.0987961 1.19506 23.5353
593 1 1 0 1 -0.301348 6.16856 15.9451
594 1 1 0 1 -5.11228 -2.25226 19.5883
595 1 1 0 1 0.0944639 4.15984 -5.86212
596 1 1 0 1 2.51247 8.09031 4.84449
597 1 1 0 1 -8.44137 2.24281 5.57244
598 1 1 0 1 2.83899 6.71052 0.878541
599 1 1 0 1 2.10042 8.55399 2.99767
600 1 1 0 1 3.26041 8.96116 2.86601
601 1 1 0 1 -5.1648 6.65034 7.43133
602 1 1 0 1 2.22143 -2.50646 2.43065
603 1 1 0 1 3.78452 0.182493 12.3742
604 1 1 0 1 4.17611 4.41409 12.8944
605 1 1 0 1 0.26518 4.72493 11.3032
606 1 1 0 1 -7.74293 -2.42728 14.397
607 1 1 0 1 -2.0891 6.67207 8.16952
608 1 1 0 1 0.0961096 -1.64372 11.8645
609 1 1 0 1 4.3058 8.69395 13.76
610 1 1 0 1 0.594362 6.55174 13.1511
611 1 1 0 1 -0.845875 3.30604 9.45863
612 1 1 0 1 4.04347 4.34778 20.4724
613 1 1 0 1 -2.0787 4.05448 16.2969
614 1 1 0 1 -3.65191 5.60964 25.4521
615 1 1 0 1 -10.4605 6.67235 20.7207
616 1 1 0 1 -3.60677 7.84998 18.8012
617 1 1 0 1 0.882043 3.35397 0.248213
618 1 1 0 1 -6.80236 8.39674 -0.92237
619 1 1 0 1 -0.889675 16.7963 2.63543
620 1 1 0 1 2.70862 6.91691 5.41684
621 1 1 0 1 -3.4226 6.33218 4.7207
622 1 1 0 1 -5.43733 3.33466 6.51851
623 1 1 0 1 -5.4884 5.92358 3.08905
624 1 1 0 1 -1.15462 3.20675 3.39939
625 1 1 0 1 -4.64433 6.05089 5.9853
626 1 1 0 1 -0.634153 9.23764 14.5446
627 1 1 0 1 -5.28878 0.657382 15.671
628 1 1 0 1 2.13729 2.13054 6.21612
629 1 1 0 1 1.53328 10.0451 16.1843
630 1 1 0 1 2.10434 13.4328 12.044
631 1 1 0 1 -1.15759 10.0642 14.8633
632 1 1 0 1 2.3196 5.06476 18.1598
633 1 1 0 1 -13.3944 8.74824 18.5126
634 1 1 0 1 -3.96925 6.87868 19.4513
635 1 1 0 1 0.139709 5.23295 16.4663
636 1 1 0 1 -2.25173 3.81551 18.0328
637 1 1 0 1 -3.78971 3.01828 18.6241
638 1 1 0 1 -4.70582 3.69918 20.5375
639 1 1 0 1 -2.74442 1.97133 6.98029
640 1 1 0 1 1.5632 8.90067 4.37684
641 1 1 0 1 4.5887 4.91902 1.63694
642 1 1 0 1 3.98601 10.4885 5.8909
643 1 1 0 1 -1.79158 11.5311 6.10913
644 1 1 0 1 -2.76083 6.81673 1.86724
645 1 1 0 1 -1.2094 4.98734 7.05934
646 1 1 0 1 3.36528 2.53002 6.42172
647 1 1 0 1 -2.88556 8.25921 -1.21129
648 1 1 0 1 -4.81288 8.14147 9.79914
649 1 1 0 1 -4.26927 10.5127 8.99906
650 1 1 0 1 1.4587 8.28644 11.5579
651 1 1 0 1 1.60384 7.72204 8.50514
652 1 1 0 1 -3.76708 15.7367 17.0597
653 1 1 0 1 -6.54661 17.9553 13.7678
654 1 1 0 1 3.04862 10.8465 20.9504
655 1 1 0 1 -4.60193 9.19292 10.6597
656 1 1 0 1 -5.44611 5.13903 16.5978
657 1 1 0 1 1.66324 8.40804 15.3306
658 1 1 0 1 4.6903 10.877 23.9604
659 1 1 0 1 -3.15268 7.56524 14.6661
660 1 1 0 1 0.879943 8.6624 17.2708
661 1 1 0 1 -1.66622 9.67107 0.422129
662 1 1 0 1 1.40823 10.961 -2.7233
663 1 1 0 1 -4.43895 6.46225 2.75031
664 1 1 0 1 -4.247 11.8841 4.38201
665 1 1 0 1 -6.97819 4.80703 5.10231
666 1 1 0 1 5.24796 10.357 14.0617
667 1 1 0 1 -5.61323 5.40282 1.0057
668 1 1 0 1 -7.10776 4.98583 2.50292
669 1 1 0 1 0.70543 7.14772 4.16088
670 1 1 0 1 -2.40284 4.91163 7.35445
671 1 1 0 1 -0.545885 3.83591 4.25384
672 1 1 0 1 -1.24397 16.8695 14.7573
673 1 1 0 1 -4.21018 15.152 15.6998
674 1 1 0 1 -0.698673 13.311 16.7936
675 1 1 0 1 -1.91927 12.0999 19.0332
676 1 1 0 1 -6.9788 6.16502 16.6825
677 1 1 0 1 -3.59391 11.1774 21.0396
678 1 1 0 1 4.23898 5.79477 19.37
679 1 1 0 1 -8.96823 4.97187 16.3137
680 1 1 0 1 -2.52053 8.60926 14.4889
681 1 1 0 1 -1.49031 10.4141 19.7527
682 1 1 0 1 1.45381 12.1882 24.7294
683 1 1 0 1 -3.67724 11.408 3.61639
684 1 1 0 1 1.72196 3.31116 -0.786672
685 1 1 0 1 -2.17597 16.5629 11.8104
686 1 1 0 1 2.39539 6.35936 7.44723
687 1 1 0 1 1.29104 17.2567 3.00411
688 1 1 0 1 -4.60653 12.9287 6.10818
689 1 1 0 1 -3.74818 2.14513 5.97005
690 1 1 0 1 0.696038 7.52831 13.2066
691 1 1 0 1 -0.0761225 4.32274 5.52424
692 1 1 0 1 -1.34395 9.04389 11.826
693 1 1 0 1 0.0717858 7.10667 18.4951
694 1 1 0 1 -5.08954 15.4564 15.0526
695 1 1 0 1 -5.28228 9.21986 18.2407
696 1 1 0 1 -1.25543 5.09536 19.2373
697 1 1 0 1 -2.34174 11.6169 14.5844
698 1 1 0 1 -9.14777 8.72295 21.7731
699 1 1 0 1 0.0615911 6.85333 21.4947
700 1 1 0 1 2.74254 12.5423 11.8819
701 1 1 0 1 0.0565538 13.6455 17.5095
702 1 1 0 1 -2.71008 5.93699 17.6033
703 1 1 0 1 -0.474956 12.8077 18.3967
704 1 1 0 1 1.343 17.9108 19.2389
705 1 1 0 1 -1.40843 11.6233 3.90596
706 1 1 0 1 -0.836088 6.96046 -0.00647914
707 1 1 0 1 -1.75549 24.829 1.2946
708 1 1 0 1 1.88154 7.84612 -1.08759
709 1 1 0 1 -7.05006 10.4235 3.58971
710 1 1 0 1 -0.828505 14.5229 6.12019
711 1 1 0 1 -6.00633 7.87036 7.78383
712 1 1 0 1 -7.24334 12.6531 12.2882
713 1 1 0 1 -5.67528 11.0702 8.09538
714 1 1 0 1 0.821414 10.8254 5.36678
715 1 1 0 1 -1.63207 11.8653 15.7131
716 1 1 0 1 -5.58988 11.6572 17.7184
717 1 1 0 1 -7.5335 14.393 14.3183
718 1 1 0 1 -0.244221 12.6473 13.8968
719 1 1 0 1 -4.15734 8.6574 18.3806
720 1 1 0 1 -1.78276 12.8771 20.4002
721 1 1 0 1 -7.66429 10.7288 12.6959
722 1 1 0 1 4.4118 13.8921 26.6623
723 1 1 0 1 -0.0549626 11.2127 17.7758
724 1 1 0 1 -2.01491 15.5151 22.3399
725 1 1 0 1 0.367407 14.8397 24.339
726 1 1 0 1 -4.01243 16.489 25.5509
727 1 1 0 1 1.37959 13.7112 -0.585625
728 1 1 0 1 -2.95752 10.2075 -1.06665
729 1 1 0 1 -6.09913 6.45317 -1.82839
730 1 1 0 1 -1.30153 16.5701 4.84521
731 1 1 0 1 1.19153 13.9903 6.63771
732 1 1 0 1 4.81885 11.1651 3.17244
733 1 1 0 1 -3.82382 9.36795 3.47931
734 1 1 0 1 1.63838 5.54671 7.04134
735 1 1 0 1 -3.42409 16.7822 5.88251
736 1 1 0 1 -6.35399 14.9242 1.40124
737 1 1 0 1 -0.0194102 9.76255 13.4062
738 1 1 0 1 9.64977 14.7468 7.95202
739 1 1 0 1 -4.5103 8.42619 17.2518
740 1 1 0 1 -4.10188 12.3102 22.0759
741 1 1 0 1 -2.49169 7.17589 18.2574
742 1 1 0 1 3.02173 7.10184 19.6805
743 1 1 0 1 -1.37743 10.988 22.1788
744 1 1 0 1 3.37873 12.5413 27.4718
745 1 1 0 1 -1.57017 11.7485 22.9192
746 1 1 0 1 -1.00932 9.26685 19.4158
747 1 1 0 1 -0.17806 14.0445 24.9661
748 1 1 0 1 1.5588 15.5981 26.148
749 1 1 0 1 0.297208 13.9962 5.9057
750 1 1 0 1 1.35019 9.76807 5.61193
751 1 1 0 1 -9.16738 12.6981 5.63739
752 1 1 0 1 0.0487003 17.5473 4.32022
753 1 1 0 1 -0.779919 10.9402 6.29898
754 1 1 0 1 0.378517 11.9203 3.33515
755 1 1 0 1 3.37451 18.6314 2.97402
756 1 1 0 1 -9.55444 19.5398 2.78921
757 1 1 0 1 -4.90504 13.6211 15.0048
758 1 1 0 1 -4.33777 18.8911 14.6714
759 1 1 0 1 -6.88531 8.76721 7.35906
760 1 1 0 1 -1.48838 8.06703 15.3569
761 1 1 0 1 -2.3809 17.147 12.8864
762 1 1 0 1 -4.52418 12.5899 11.6393
763 1 1 0 1 -1.3281 14.2214 11.9546
764 1 1 0 1 -4.12166 17.2817 14.8506
765 1 1 0 1 -0.196433 13.5856 19.2874
766 1 1 0 1 -3.13398 13.6859 18.1683
767 1 1 0 1 -2.16933 13.8763 20.0677
768 1 1 0 1 -3.13469 12.5862 22.8786
769 1 1 0 1 3.49271 8.64524 23.5275
770 1 1 0 1 -3.26255 13.2254 23.7689
771 1 1 0 1 -2.74323 13.9691 3.99429
772 1 1 0 1 -1.83965 14.3033 13.2343
773 1 1 0 1 -2.88664 12.7578 4.51043
774 1 1 0 1 -0.346983 12.6032 11.2041
775 1 1 0 1 -7.71613 13.4774 -1.9181
776 1 1 0 1 -0.885077 8.82886 6.10941
777 1 1 0 1 -4.08273 17.7602 8.37301
778 1 1 0 1 -2.26693 10.9906 7.92905
779 1 1 0 1 -1.09014 16.0395 15.3637
780 1 1 0 1 -5.48679 16.3299 9.60392
781 1 1 0 1 2.06677 12.9813 19.6605
782 1 1 0 1 -3.40554 15.7998 16.0307
783 1 1 0 1 -1.49009 17.3245 13.7942
784 1 1 0 1 -1.9946 18.8034 22.49
785 1 1 0 1 -2.8222 20.7736 15.9372
786 1 1 0 1 -3.3497 12.1757 20.0149
787 1 1 0 1 4.25532 14.2417 21.0931
788 1 1 0 1 -9.42432 18.5165 13.3519
789 1 1 0 1 -4.07965 17.7384 19.1927
790 1 1 0 1 -0.839348 12.4604 25.6307
791 1 1 0 1 1.72438 12.2425 20.3184
792 1 1 0 1 0.840748 9.48854 23.1377
793 1 1 0 1 -8.84338 13.4792 3.67491
794 1 1 0 1 3.52794 16.7728 3.5708
795 1 1 0 1 0.029271 20.1888 -1.26491
796 1 1 0 1 -1.9924 17.9 8.93148
797 1 1 0 1 -2.58796 20.1823 2.22757
798 1 1 0 1 -2.27331 17.0193 1.63929
799 1 1 0 1 -3.77296 14.2257 8.66509
800 1 1 0 1 3.84024 7.77839 4.60408
801 1 1 0 1 6.52712 15.064 11.8268
802 1 1 0 1 -6.13304 18.7371 11.9655
803 1 1 0 1 -1.72976 18.2799 15.7752
804 1 1 0 1 -0.64839 13.396 14.5269
805 1 1 0 1 -6.98211 16.3428 15.4088
806 1 1 0 1 -0.088109 8.04933 9.05452
807 1 1 0 1 -3.17787 16.718 15.4311
808 1 1 0 1 1.02342 21.4435 11.3254
809 1 1 0 1 -4.37561 16.5743 16.4547