ITEM: TIMESTEP
22000
ITEM: NUMBER OF ATOMS
6752
ITEM: BOX BOUNDS pp pp pp
0.0000000000000000e+00 2.2000000000000000e+01
0.0000000000000000e+00 2.2000000000000000e+01
0.0000000000000000e+00 2.2000000000000000e+01
ITEM: ATOMS id mol type q mass xu yu zu
1 1 1 0 1 -0.928265 -8.58007 4.21246
2 1 1 0 1 -0.609736 5.10786 0.0703481
3 1 1 0 1 -4.49417 -0.4152 4.63598
4 1 1 0 1 -11.8116 -2.76744 6.18204
5 1 1 0 1 2.74577 7.64136 1.47225
6 1 1 0 1 -11.2772 -3.38311 8.50074
7 1 1 0 1 4.84589 8.35297 5.58731
8 1 1 0 1 4.62364 -2.91247 11.7714
9 1 1 0 1 0.342428 3.08893 10.3606
10 1 1 0 1 -7.12374 -2.75864 11.2744
11 1 1 0 1 -2.12066 0.621667 4.78531
12 1 1 0 1 -6.1475 -3.53761 18.0428
13 1 1 0 1 2.92171 4.91425 13.4194
14 1 1 0 1 -0.358172 12.8338 12.1187
15 1 1 0 1 -8.5948 -0.344278 8.10795
16 1 1 0 1 -5.85176 -7.51753 14.9343
17 1 1 0 1 -0.735773 -3.42807 15.309
18 1 1 0 1 -6.30883 -8.70978 20.0694
19 1 1 0 1 -4.73494 6.43804 16.1197
20 1 1 0 1 -6.19298 3.87858 19.5411
21 1 1 0 1 -6.34233 5.02638 15.1277
22 1 1 0 1 -1.6022 9.8131 18.577
23 1 1 0 1 -9.07615 -0.619938 4.83023
24 1 1 0 1 -6.02763 4.34756 -1.35655
25 1 1 0 1 -1.63174 0.355615 -7.61378
26 1 1 0 1 0.359641 -4.41415 6.78361
27 1 1 0 1 -6.85646 -1.67691 12.2866
28 1 1 0 1 -2.72357 3.55496 1.76697
29 1 1 0 1 -2.97646 -0.971132 16.1164
30 1 1 0 1 -2.37657 -0.207131 16.7394
31 1 1 0 1 -4.34216 8.17467 9.92624
32 1 1 0 1 -3.71487 -4.98473 0.890463
33 1 1 0 1 -9.6813 -0.0556205 9.67128
34 1 1 0 1 -3.26228 2.94482 14.5164
35 1 1 0 1 -2.98446 3.25837 13.6041
36 1 1 0 1 1.67156 1.2727 5.12512
37 1 1 0 1 -3.14916 0.350874 14.7171
38 1 1 0 1 2.40835 1.05659 24.2926
39 1 1 0 1 0.372299 5.31429 11.2528
40 1 1 0 1 -1.35377 5.40274 18.2852
41 1 1 0 1 -6.27633 -0.611555 14.1699
42 1 1 0 1 -3.68539 4.42785 26.4071
43 1 1 0 1 0.630322 9.37753 20.7592
44 1 1 0 1 -3.31347 9.52507 16.9277
45 1 1 0 1 -8.54986 4.53135 3.87004
46 1 1 0 1 -1.9706 4.96409 9.63119
47 1 1 0 1 -1.55695 -0.290406 -1.74125
48 1 1 0 1 -9.67958 10.2032 3.27151
49 1 1 0 1 -3.36039 4.86476 0.689392
50 1 1 0 1 -3.53548 1.30797 0.407501
51 1 1 0 1 -1.48931 3.56391 1.60423
52 1 1 0 1 0.804703 2.27041 12.5788
53 1 1 0 1 -4.20446 -2.5352 3.27157
54 1 1 0 1 -3.77394 -1.28909 18.3133
55 1 1 0 1 -5.76023 1.21561 9.61356
56 1 1 0 1 -0.30693 3.92433 9.9063
57 1 1 0 1 -1.00848 11.5472 16.3232
58 1 1 0 1 -6.26331 12.1589 12.2544
59 1 1 0 1 -6.62035 4.14186 10.9501
60 1 1 0 1 0.157249 1.48321 20.502
61 1 1 0 1 -5.46771 8.76445 11.9675
62 1 1 0 1 3.56985 1.97216 22.5809
63 1 1 0 1 -0.996577 7.77583 4.41826
64 1 1 0 1 0.957753 -2.4493 14.4469
65 1 1 0 1 -11.1234 1.21161 17.5549
66 1 1 0 1 -5.69041 6.79722 23.8493
67 1 1 0 1 -3.86174 -4.25349 -1.7481
68 1 1 0 1 -8.10986 5.5968 -6.01487
69 1 1 0 1 -3.54929 6.94991 0.660128
70 1 1 0 1 0.842786 13.1682 3.11135
71 1 1 0 1 1.03359 -0.757555 4.41792
72 1 1 0 1 -12.8588 2.98497 0.198678
73 1 1 0 1 0.69893 4.10258 9.22453
74 1 1 0 1 -5.16992 3.13927 14.5511
75 1 1 0 1 0.70216 2.41361 9.57002
76 1 1 0 1 -2.80254 -1.05541 8.95076
77 1 1 0 1 -5.68305 -2.85099 5.10272
78 1 1 0 1 -1.56028 6.36057 11.6028
79 1 1 0 1 -3.23435 2.0083 13.3923
80 1 1 0 1 2.44741 -1.73498 14.7205
81 1 1 0 1 -3.34276 8.7591 19.8391
82 1 1 0 1 -3.7847 -2.71123 9.63388
83 1 1 0 1 -4.54948 -0.354784 18.4671
84 1 1 0 1 6.03207 2.90536 15.8237
85 1 1 0 1 -8.17562 -1.70466 23.7177
86 1 1 0 1 -4.64606 -2.26132 20.5382
87 1 1 0 1 -0.209208 2.52202 21.5079
88 1 1 0 1 -2.00618 7.70329 20.5926
89 1 1 0 1 -1.36774 9.76882 1.3467
90 1 1 0 1 -0.0537488 10.9842 7.99332
91 1 1 0 1 -3.30403 -0.27685 7.58868
92 1 1 0 1 -3.38136 7.7068 4.21877
93 1 1 0 1 1.19986 8.37077 6.62435
94 1 1 0 1 -1.1903 -5.8809 2.52085
95 1 1 0 1 -4.73025 9.1943 9.92551
96 1 1 0 1 0.17003 4.81013 6.86331
97 1 1 0 1 -4.61577 12.5307 11.8063
98 1 1 0 1 -1.62493 8.52052 7.42344
99 1 1 0 1 -4.09407 6.30473 8.44793
100 1 1 0 1 -0.289359 0.453796 3.24385
101 1 1 0 1 -7.55244 4.17593 7.34268
102 1 1 0 1 -5.49149 4.42311 11.9053
103 1 1 0 1 -3.75771 8.36053 10.8754
104 1 1 0 1 -4.11946 14.2916 11.8964
105 1 1 0 1 -3.41371 5.92804 4.579
106 1 1 0 1 3.0651 4.84539 21.5197
107 1 1 0 1 -6.80174 8.914 15.6958
108 1 1 0 1 -2.60827 7.05165 14.1866
109 1 1 0 1 -7.20031 3.01583 23.049
110 1 1 0 1 -7.18632 5.62972 22.8897
111 1 1 0 1 -4.6325 4.75785 4.71453
112 1 1 0 1 -5.44417 8.83539 -1.99056
113 1 1 0 1 -1.12285 9.35241 15.6515
114 1 1 0 1 -1.61621 7.10104 6.18522
115 1 1 0 1 -6.54722 10.7936 3.5043
116 1 1 0 1 -3.30568 15.4424 7.2338
117 1 1 0 1 -5.52379 8.22576 3.2705
118 1 1 0 1 -3.51386 4.1911 7.50383
119 1 1 0 1 -4.20094 6.04037 9.9157
120 1 1 0 1 -1.82398 2.53723 9.60405
121 1 1 0 1 0.132284 1.78463 5.49556
122 1 1 0 1 0.318567 5.5889 8.6483
123 1 1 0 1 -4.28832 6.07546 12.5042
124 1 1 0 1 -6.47527 9.79791 15.3728
125 1 1 0 1 -9.85687 8.95964 7.39552
126 1 1 0 1 -7.00326 5.36645 19.9387
127 1 1 0 1 -1.89638 9.60904 16.498
128 1 1 0 1 -9.32858 9.26751 12.4254
129 1 1 0 1 -3.27751 6.64631 24.0894
130 1 1 0 1 -6.09146 8.36472 15.193
131 1 1 0 1 -8.41533 1.02452 8.37849
132 1 1 0 1 -5.35781 4.40521 27.339
133 1 1 0 1 1.07682 6.4828 2.79626
134 1 1 0 1 -7.01194 4.98575 10.4911
135 1 1 0 1 -8.71712 2.08336 1.2998
136 1 1 0 1 -1.41396 11.0625 3.29415
137 1 1 0 1 -9.36504 3.52957 8.7982
138 1 1 0 1 -8.55587 8.11344 12.254
139 1 1 0 1 2.58409 5.19839 3.75354
140 1 1 0 1 -8.04781 7.4897 4.78017
141 1 1 0 1 4.7747 4.42696 0.254173
142 1 1 0 1 -4.81989 4.90889 9.86006
143 1 1 0 1 -2.222 2.66015 13.1947
144 1 1 0 1 2.61763 3.31371 7.8948
145 1 1 0 1 -9.03897 6.35444 17.785
146 1 1 0 1 -7.93926 10.996 22.5327
147 1 1 0 1 -3.70729 20.2424 14.2733
148 1 1 0 1 -6.45676 13.7434 11.9931
149 1 1 0 1 -9.63154 4.66847 18.2891
150 1 1 0 1 -5.75137 10.4625 9.09762
151 1 1 0 1 -5.31042 2.07774 21.6349
152 1 1 0 1 -5.12569 2.12068 17.1646
153 1 1 0 1 -1.2726 9.3392 21.5202
154 1 1 0 1 -3.09118 3.41316 27.2829
155 1 1 0 1 -2.1277 5.32448 -2.00332
156 1 1 0 1 1.11439 6.67367 -2.47917
157 1 1 0 1 -3.58573 10.3545 4.58592
158 1 1 0 1 -3.53355 11.5269 2.76784
159 1 1 0 1 -4.08911 9.55868 0.210101
160 1 1 0 1 -3.9033 4.85524 6.47161
161 1 1 0 1 -0.541928 14.4353 6.40667
162 1 1 0 1 -4.4806 7.89619 12.0424
163 1 1 0 1 3.28254 8.63693 3.48202
164 1 1 0 1 -8.75575 4.79457 10.8245
165 1 1 0 1 0.0639812 1.88333 14.6203
166 1 1 0 1 -2.83384 10.4234 18.9521
167 1 1 0 1 -4.6208 14.3795 18.7499
168 1 1 0 1 -9.48821 4.45458 21.565
169 1 1 0 1 -5.85567 13.5137 15.1775
170 1 1 0 1 3.65467 8.2882 22.9137
171 1 1 0 1 -2.20915 14.3339 26.6616
172 1 1 0 1 -0.788184 9.3538 19.5005
173 1 1 0 1 -0.454711 9.70832 18.4672
174 1 1 0 1 6.9641 7.59561 23.4253
175 1 1 0 1 -5.13829 7.7907 20.1969
176 1 1 0 1 -1.26665 2.34666 28.2579
177 1 1 0 1 -6.12762 5.85302 1.65084
178 1 1 0 1 -0.350707 17.0268 11.5656
179 1 1 0 1 -8.33512 14.564 -1.45592
180 1 1 0 1 -0.938271 15.0092 0.962007
181 1 1 0 1 -5.86772 16.4245 3.26173
182 1 1 0 1 -6.02061 13.3668 4.77012
183 1 1 0 1 -5.29279 10.8818 6.52544
184 1 1 0 1 -4.46724 7.14831 9.03224
185 1 1 0 1 -7.57657 -1.21731 9.11007
186 1 1 0 1 -12.7919 16.0655 6.86277
187 1 1 0 1 -8.41692 16.0589 13.1596
188 1 1 0 1 -1.43605 0.779212 12.2451
189 1 1 0 1 -0.391601 11.3242 17.4102
190 1 1 0 1 -7.07611 6.46496 14.0637
191 1 1 0 1 -4.15648 10.8506 21.5831
192 1 1 0 1 -3.12446 7.38056 15.708
193 1 1 0 1 -2.93714 5.18142 19.152
194 1 1 0 1 7.25526 11.5926 18.4835
195 1 1 0 1 -6.65185 7.23309 14.7339
196 1 1 0 1 1.17554 8.27639 20.3551
197 1 1 0 1 -2.68119 5.64583 17.5718
198 1 1 0 1 9.99648 9.12928 23.6793
199 1 1 0 1 1.59539 11.3871 3.61341
200 1 1 0 1 4.33075 8.71021 7.37205
201 1 1 0 1 -5.39703 13.7005 -2.2847
202 1 1 0 1 -0.342366 4.19917 8.67568
203 1 1 0 1 -9.07908 11.7848 6.3684
204 1 1 0 1 -2.90761 7.98709 14.0198
205 1 1 0 1 0.980185 3.92143 2.14165
206 1 1 0 1 3.33305 11.2075 6.71697
207 1 1 0 1 -3.57921 10.6071 3.06341
208 1 1 0 1 -3.10141 3.71822 12.6257
209 1 1 0 1 -1.19745 0.0401485 3.49854
210 1 1 0 1 -6.37888 8.078 7.48624
211 1 1 0 1 -1.59873 7.6028 9.62761
212 1 1 0 1 -8.27239 9.07371 12.6457
213 1 1 0 1 0.601448 10.0091 26.1868
214 1 1 0 1 -14.3481 19.8511 17.7173
215 1 1 0 1 -6.43046 12.0392 16.2096
216 1 1 0 1 -6.25128 9.67731 19.4488
217 1 1 0 1 -7.7962 14.4088 24.58
218 1 1 0 1 -0.136115 9.37861 24.9677
219 1 1 0 1 4.92921 11.23 24.9665
220 1 1 0 1 5.47499 13.5569 22.2699
221 1 1 0 1 8.88463 8.50743 -3.16918
222 1 1 0 1 -7.70662 12.324 -0.519591
223 1 1 0 1 -7.74513 11.9989 0.51858
224 1 1 0 1 -7.11514 8.74211 -3.51611
225 1 1 0 1 -8.66822 17.6337 5.15121
226 1 1 0 1 -14.8078 10.6152 9.47437
227 1 1 0 1 -10.4496 13.9576 4.67558
228 1 1 0 1 -9.53019 16.2804 0.80473
229 1 1 0 1 0.94809 9.96506 8.04338
230 1 1 0 1 -2.25543 15.2422 7.62863
231 1 1 0 1 -4.4823 10.7307 10.7683
232 1 1 0 1 1.71523 3.38983 13.0986
233 1 1 0 1 -0.218014 13.7235 16.2302
234 1 1 0 1 -11.6144 9.88138 10.5401
235 1 1 0 1 -5.3244 12.7027 16.0306
236 1 1 0 1 -8.17041 13.6307 15.1511
237 1 1 0 1 -11.2348 15.3892 16.405
238 1 1 0 1 -8.27454 11.3801 13.1336
239 1 1 0 1 -6.76555 8.50482 17.3414
240 1 1 0 1 -5.39432 11.5475 12.6002
241 1 1 0 1 -4.03988 6.9771 18.7218
242 1 1 0 1 -4.39353 0.498233 22.8831
243 1 1 0 1 -0.449769 11.8967 -0.456798
244 1 1 0 1 -3.19196 10.5201 0.054306
245 1 1 0 1 -4.36892 14.6072 0.993385
246 1 1 0 1 0.223949 11.6307 6.16866
247 1 1 0 1 -5.33546 10.76 5.3604
248 1 1 0 1 -3.35156 -2.21276 6.39283
249 1 1 0 1 -10.6744 12.0739 8.19237
250 1 1 0 1 -2.91617 4.2363 5.98584
251 1 1 0 1 -5.85946 7.54943 5.2916
252 1 1 0 1 -0.523813 1.69612 6.67361
253 1 1 0 1 2.32937 0.226043 17.5933
254 1 1 0 1 -0.777187 12.6716 16.3757
255 1 1 0 1 -6.1968 4.01876 9.85419
256 1 1 0 1 -9.75333 19.1708 12.7368
257 1 1 0 1 1.17969 18.0214 17.7214
258 1 1 0 1 1.18654 13.4205 17.3658
259 1 1 0 1 -7.44897 11.3986 20.7755
260 1 1 0 1 -2.2526 12.2843 17.8497
261 1 1 0 1 -3.31007 7.63754 20.7458
262 1 1 0 1 -2.48088 8.69406 20.8437
263 1 1 0 1 1.60781 15.8267 20.8752
264 1 1 0 1 0.181781 15.2989 23.1164
265 1 1 0 1 -3.80789 11.7809 -0.566787
266 1 1 0 1 5.25942 16.2496 2.23522
267 1 1 0 1 -0.726468 16.3441 9.36987
268 1 1 0 1 -2.3575 6.56751 -2.27271
269 1 1 0 1 -1.03676 11.7522 11.5463
270 1 1 0 1 0.466828 15.5774 -0.96012
271 1 1 0 1 -6.13335 5.04741 9.62931
272 1 1 0 1 -7.58233 8.5105 13.5789
273 1 1 0 1 -1.99937 13.467 6.23372
274 1 1 0 1 -11.6137 6.72448 6.55807
275 1 1 0 1 -7.36443 4.21768 11.7038
276 1 1 0 1 -3.41064 13.0442 10.9826
277 1 1 0 1 -5.46749 8.62883 13.8076
278 1 1 0 1 -2.05897 15.3507 16.6104
279 1 1 0 1 -4.20174 17.5204 11.0468
280 1 1 0 1 -7.93229 14.5508 10.4444
281 1 1 0 1 1.57426 11.1815 29.6695
282 1 1 0 1 -3.63021 13.6281 9.5943
283 1 1 0 1 -1.45449 14.1277 15.5708
284 1 1 0 1 -7.02721 14.3605 15.0788
285 1 1 0 1 -4.41032 4.37423 16.1795
286 1 1 0 1 -0.583183 10.4042 19.5952
287 1 1 0 1 -8.00559 22.3379 6.58827
288 1 1 0 1 -2.88748 14.7927 -0.256633
289 1 1 0 1 -7.69255 4.40422 6.35715
290 1 1 0 1 -2.1668 10.5976 7.24666
291 1 1 0 1 -9.41053 1.61597 9.80013
292 1 1 0 1 -7.29202 12.0306 9.89219
293 1 1 0 1 -0.256152 7.85378 8.01796
294 1 1 0 1 -0.454967 16.5339 7.26857
295 1 1 0 1 -3.76713 7.58534 8.34797
296 1 1 0 1 0.609165 13.63 13.7031
297 1 1 0 1 -6.26283 10.9612 5.77549
298 1 1 0 1 -8.36698 2.88411 16.7489
299 1 1 0 1 0.596872 17.667 14.3203
300 1 1 0 1 1.26548 19.7741 20.4779
301 1 1 0 1 -4.75435 16.2142 18.3889
302 1 1 0 1 -4.63656 14.4743 17.5842
303 1 1 0 1 -10.4079 17.375 12.5046
304 1 1 0 1 -1.35925 9.72167 10.3964
305 1 1 0 1 6.25105 12.362 19.1783
306 1 1 0 1 -1.47036 12.6582 21.4286
307 1 1 0 1 1.41992 18.8107 21.088
308 1 1 0 1 2.38736 27.1378 26.8266
309 1 1 0 1 1.91934 13.195 5.02396
310 1 1 0 1 3.07129 15.4338 5.42892
311 1 1 0 1 -9.48146 13.3761 -2.48062
312 1 1 0 1 -9.26198 5.4822 2.56666
313 1 1 0 1 -9.45538 12.6902 1.98947
314 1 1 0 1 0.773195 10.9374 2.85542
315 1 1 0 1 2.22032 9.03652 7.16526
316 1 1 0 1 -10.8901 17.4071 7.30817
317 1 1 0 1 -3.92186 15.1569 11.5211
318 1 1 0 1 -4.85959 16.3718 11.3637
319 1 1 0 1 -4.42407 13.4315 8.78755
320 1 1 0 1 2.28115 18.2275 6.70385
321 1 1 0 1 -6.1816 15.4938 14.4312
322 1 1 0 1 0.165898 10.6962 18.5957
323 1 1 0 1 -2.86434 15.5607 10.5542
324 1 1 0 1 -2.52809 15.3001 6.50627
325 1 1 0 1 0.175153 10.4266 9.50033
326 1 1 0 1 -5.95273 15.3223 16.9378
327 1 1 0 1 -9.06484 12.2191 17.962
328 1 1 0 1 -0.530922 16.2335 21.3952
329 1 1 0 1 0.55667 12.0841 24.945
330 1 1 0 1 5.63551 14.0191 21.2825
331 1 1 0 1 -4.4476 14.4465 7.8811
332 1 1 0 1 -4.00824 17.7444 5.16925
333 1 1 0 1 -2.80642 8.73379 5.6549
334 1 1 0 1 -3.22917 16.5924 2.76542
335 1 1 0 1 -0.914392 11.4809 9.97205
336 1 1 0 1 -7.25123 11.4726 4.10234
337 1 1 0 1 -1.80415 12.1169 5.86484
338 1 1 0 1 -2.41655 10.445 10.1781
339 1 1 0 1 -12.0858 11.2659 6.01983
340 1 1 0 1 -0.729553 11.389 8.95655
341 1 1 0 1 -5.13743 7.60169 6.09276
342 1 1 0 1 -2.93876 17.4664 10.9918
343 1 1 0 1 -2.43199 13.6699 8.24354
344 1 1 0 1 -6.72234 8.7768 12.1246
345 1 1 0 1 -6.32439 19.4302 12.0075
346 1 1 0 1 2.64662 18.7212 18.5567
347 1 1 0 1 -1.33644 19.7561 18.5065
348 1 1 0 1 -2.62442 10.8902 20.1766
349 1 1 0 1 -1.15629 18.0633 16.9525
350 1 1 0 1 -2.16173 18.4274 17.2631
351 1 1 0 1 -9.3477 20.6656 16.4748
352 1 1 0 1 -1.35716 18.2892 29.4218
353 1 1 0 1 -9.06918 19.3257 -1.7627
354 1 1 0 1 2.15025 19.5367 1.51047
355 1 1 0 1 -8.39616 7.89394 7.38677
356 1 1 0 1 -7.1375 9.61698 5.35391
357 1 1 0 1 0.29431 14.2515 2.69755
358 1 1 0 1 -3.33075 15.8469 6.22945
359 1 1 0 1 -10.5726 12.6738 10.1837
360 1 1 0 1 0.0418068 13.334 7.2311
361 1 1 0 1 -1.24871 21.0138 10.0183
362 1 1 0 1 -0.093677 12.0697 10.157
363 1 1 0 1 1.34791 11.7832 11.0642
364 1 1 0 1 3.60848 12.8784 7.57451
365 1 1 0 1 -1.19547 4.62813 8.19005
366 1 1 0 1 -8.18223 15.9463 11.9409
367 1 1 0 1 -0.820643 9.34456 13.5182
368 1 1 0 1 -3.99745 19.1837 17.5007
369 1 1 0 1 -4.55597 13.3668 11.0374
370 1 1 0 1 -3.15247 6.07193 9.71115
371 1 1 0 1 -6.6879 18.0365 24.9135
372 1 1 0 1 -3.72448 14.2172 19.5786
373 1 1 0 1 -4.56274 13.312 16.2354
374 1 1 0 1 -1.08344 13.4181 28.7601
375 1 1 0 1 -6.58841 4.57581 6.41272
376 1 1 0 1 -6.92212 14.5128 -0.918229
377 1 1 0 1 -10.5997 11.1865 -0.00610375
378 1 1 0 1 -8.7133 13.8329 7.21347
379 1 1 0 1 0.117363 16.6698 -4.35263
380 1 1 0 1 -4.62115 13.6616 3.68202
381 1 1 0 1 -6.11668 16.9993 6.13709
382 1 1 0 1 -12.6966 17.1371 15.4438
383 1 1 0 1 -1.50815 19.2155 12.6202
384 1 1 0 1 0.858827 12.3012 14.9011
385 1 1 0 1 -6.34426 15.3789 7.14717
386 1 1 0 1 -3.56204 11.0744 11.0522
387 1 1 0 1 -5.91045 11.1314 16.1848
388 1 1 0 1 -3.86584 16.4889 18.9459
389 1 1 0 1 -4.46746 18.3275 17.1804
390 1 1 0 1 -3.5369 14.616 18.37
391 1 1 0 1 -3.93129 23.7274 21.1986
392 1 1 0 1 -7.46402 15.912 6.9295
393 1 1 0 1 -4.24718 12.1683 12.8748
394 1 1 0 1 -3.53507 19.0148 22.0107
395 1 1 0 1 -12.5064 12.3121 12.48
396 1 1 0 1 -0.747246 12.1328 26.1224
397 1 1 0 1 -2.21607 16.2649 2.1155
398 1 1 0 1 -3.29206 25.8808 0.784223
399 1 1 0 1 -3.45589 15.1774 1.90007
400 1 1 0 1 -6.5209 8.70193 6.57888
401 1 1 0 1 0.552414 12.5054 11.6218
402 1 1 0 1 -5.12619 13.4072 12.0129
403 1 1 0 1 3.50234 14.6521 12.7349
404 1 1 0 1 -5.35587 25.4613 4.40502
405 1 1 0 1 -10.3096 14.3462 8.36116
406 1 1 0 1 -8.48299 17.7082 6.50755
407 1 1 0 1 -3.74776 14.988 5.29793
408 1 1 0 1 -9.27882 17.2734 9.54977
409 1 1 0 1 -10.9445 12.5979 16.2988
410 1 1 0 1 -6.10186 4.34861 7.33679
411 1 1 0 1 4.51026 16.9187 9.37216
412 1 1 0 1 -9.97238 14.919 4.50228
413 1 1 0 1 -7.87435 14.2369 15.9986
414 1 1 0 1 -7.13811 9.35601 19.7268
415 1 1 0 1 -2.48273 15.6314 27.2323
416 1 1 0 1 -3.52909 14.4066 28.3332
417 1 1 0 1 -0.0779074 20.6781 23.3583
418 1 1 0 1 2.89344 16.6098 26.5438
419 1 1 0 1 -7.68209 17.4252 4.6866
420 1 1 0 1 -2.48662 23.3134 15.0663
421 1 1 0 1 -6.4551 17.248 3.68817
422 1 1 0 1 -2.1626 2.87965 4.90495
423 1 1 0 1 -0.857118 27.5684 9.02277
424 1 1 0 1 -2.19473 14.3108 11.2716
425 1 1 0 1 -1.94181 14.8028 2.37809
426 1 1 0 1 -5.81152 22.6141 -6.33879
427 1 1 0 1 -4.44108 22.1367 7.6516
428 1 1 0 1 2.39461 16.1692 2.18618
429 1 1 0 1 -6.68502 24.5323 4.45651
430 1 1 0 1 -2.15974 17.1879 8.57961
431 1 1 0 1 -7.65865 13.4244 13.255
432 1 1 0 1 0.387435 26.2554 10.6201
433 1 1 0 1 -5.15666 19.2374 14.6763
434 1 1 0 1 -5.03001 4.97091 14.1379
435 1 1 0 1 -2.46843 10.8727 22.9101
436 1 1 0 1 -8.70454 15.0325 12.4821
437 1 1 0 1 -4.6264 20.1421 16.6293
438 1 1 0 1 -4.99235 16.9156 19.1461
439 1 1 0 1 -1.75408 22.5391 21.3671
440 1 1 0 1 -2.77402 11.5152 21.7579
441 1 1 0 1 -4.22289 17.5894 -2.8433
442 1 1 0 1 -4.82421 22.0781 6.11505
443 1 1 0 1 -3.14809 16.5002 -1.74991
444 1 1 0 1 -1.64293 23.9566 -0.0567412
445 1 1 0 1 -8.59633 15.7365 4.86372
446 1 1 0 1 1.31865 7.14906 10.9204
447 1 1 0 1 -0.687406 9.3353 6.81033
448 1 1 0 1 -9.5819 16.4476 10.5725
449 1 1 0 1 -1.09072 20.8131 11.2791
450 1 1 0 1 -4.43539 10.2941 20.7811
451 1 1 0 1 -9.64374 14.7131 12.8132
452 1 1 0 1 -6.76339 18.1707 20.4173
453 1 1 0 1 -5.51138 17.87 19.0429
454 1 1 0 1 3.11943 24.795 16.7616
455 1 1 0 1 -2.25487 5.3014 5.71508
456 1 1 0 1 -4.56705 16.0422 13.7299
457 1 1 0 1 -6.14357 22.2281 12.4772
458 1 1 0 1 -11.8444 15.202 13.2313
459 1 1 0 1 -6.43989 15.0559 15.6447
460 1 1 0 1 -1.82753 12.2675 19.4073
461 1 1 0 1 -0.490341 21.9049 13.36
462 1 1 0 1 4.22842 25.8111 21.5503
463 1 1 0 1 1.43609 23.6525 -6.33714
464 1 1 0 1 -2.05131 21.7728 9.37778
465 1 1 0 1 8.45878 24.3281 0.790356
466 1 1 0 1 2.59964 31.5933 1.48948
467 1 1 0 1 -6.61801 19.1025 9.21651
468 1 1 0 1 -5.28607 20.8716 5.24376
469 1 1 0 1 -1.53028 17.1594 12.0423
470 1 1 0 1 -0.945165 21.7835 10.6194
471 1 1 0 1 -4.62856 7.53917 4.73508
472 1 1 0 1 1.94014 30.7738 13.7297
473 1 1 0 1 -8.0932 19.4269 9.87784
474 1 1 0 1 1.27654 16.7763 11.2148
475 1 1 0 1 0.985765 18.3919 16.3576
476 1 1 0 1 3.65646 26.359 18.3544
477 1 1 0 1 1.58882 19.8556 15.4555
478 1 1 0 1 5.35019 22.9146 15.1135
479 1 1 0 1 -6.43417 29.8544 13.8878
480 1 1 0 1 2.52961 20.1203 19.7292
481 1 1 0 1 -1.7669 18.7548 15.7722
482 1 1 0 1 -4.68218 31.1802 18.1106
483 1 1 0 1 0.999196 18.5008 29.7565
484 1 1 0 1 -3.66127 18.9523 24.1307
485 1 1 0 1 -1.98752 -8.82879 1.23261
486 1 1 0 1 -1.59423 7.04736 -6.07486
487 1 1 0 1 -1.27644 3.24264 -1.08009
488 1 1 0 1 -2.23158 0.00913042 2.27752
489 1 1 0 1 1.26105 1.33882 -4.72165
490 1 1 0 1 -8.24838 -2.10987 5.06049
491 1 1 0 1 -5.21987 2.44327 4.54652
492 1 1 0 1 -1.21883 -10.3779 12.8384
493 1 1 0 1 -0.843286 -2.76841 13.7726
494 1 1 0 1 -6.65786 0.200812 4.6116
495 1 1 0 1 -7.27297 0.895067 13.8536
496 1 1 0 1 -0.579127 6.29718 19.9052
497 1 1 0 1 -2.60721 -7.54193 15.5538
498 1 1 0 1 1.27955 3.85004 15.1627
499 1 1 0 1 -0.690875 7.21623 11.2339
500 1 1 0 1 -4.71939 -3.99858 15.8114
501 1 1 0 1 -0.917465 0.0428309 9.24088
502 1 1 0 1 -0.135726 -8.3608 17.9372
503 1 1 0 1 -4.33076 7.85294 14.0888
504 1 1 0 1 0.696108 -0.92187 11.809
505 1 1 0 1 -4.59373 -0.442114 14.6203
506 1 1 0 1 -1.39229 5.24436 16.8136
507 1 1 0 1 -1.17078 5.96521 -2.81099
508 1 1 0 1 -2.37061 5.05777 1.4521
509 1 1 0 1 -3.53895 2.69184 2.80924
510 1 1 0 1 -6.08744 -4.99025 0.129319
511 1 1 0 1 3.4784 1.01061 5.97548
512 1 1 0 1 -2.85032 12.3423 6.73922
513 1 1 0 1 -4.231 -3.20538 6.79006
514 1 1 0 1 -2.16757 -0.941199 2.77005
515 1 1 0 1 9.92766 8.05206 2.27786
516 1 1 0 1 -6.03716 6.21872 11.4545
517 1 1 0 1 -3.56143 0.767586 8.20179
518 1 1 0 1 -0.580884 3.31158 4.54558
519 1 1 0 1 4.94483 0.853763 18.4719
520 1 1 0 1 -0.189104 -4.44443 9.90497
521 1 1 0 1 -2.85875 3.94943 14.6201
522 1 1 0 1 -6.42656 8.68148 10.1293
523 1 1 0 1 3.31364 0.473847 14.546
524 1 1 0 1 0.408405 3.11145 15.4091
525 1 1 0 1 -1.01576 0.583582 24.4219
526 1 1 0 1 0.6812 -4.35466 25.2286
527 1 1 0 1 -1.36403 9.09038 20.5232
528 1 1 0 1 2.06221 1.72784 23.5082
529 1 1 0 1 9.18608 10.6163 7.47503
530 1 1 0 1 1.8147 -1.87205 -4.54841
531 1 1 0 1 4.16613 10.5851 -2.65861
532 1 1 0 1 1.27062 -6.2647 4.15264
533 1 1 0 1 -5.24952 6.43736 -3.70322
534 1 1 0 1 -1.14804 -0.41603 6.08888
535 1 1 0 1 4.25204 6.18898 0.208033
536 1 1 0 1 -2.18859 9.87988 2.13566
537 1 1 0 1 -0.361175 2.01789 7.67909
538 1 1 0 1 -2.86236 -2.5258 12.2399
539 1 1 0 1 -0.870911 4.74481 12.1085
540 1 1 0 1 0.269377 7.91615 10.0061
541 1 1 0 1 -5.95829 9.03056 10.9835
542 1 1 0 1 -6.15623 9.3865 13.2327
543 1 1 0 1 -4.44716 8.32941 7.51251
544 1 1 0 1 -0.0768595 6.12402 9.87485
545 1 1 0 1 0.987171 7.82295 11.7286
546 1 1 0 1 -2.50776 -0.840903 13.6037
547 1 1 0 1 -0.939522 -1.2206 19.2472
548 1 1 0 1 -1.10453 8.06555 30.7154
549 1 1 0 1 -0.235698 4.63378 27.6165
550 1 1 0 1 -4.64112 8.31091 22.7496
551 1 1 0 1 -0.875471 8.25509 -2.6432
552 1 1 0 1 -4.90667 4.9623 -4.98302
553 1 1 0 1 -0.950057 7.8852 1.04327
554 1 1 0 1 0.806137 4.87798 -1.37981
555 1 1 0 1 0.186991 6.93189 -3.951
556 1 1 0 1 -1.07635 1.34447 3.46113
557 1 1 0 1 1.84139 10.8599 1.29276
558 1 1 0 1 0.292132 2.98054 7.13624
559 1 1 0 1 -0.265259 -1.7238 11.902
560 1 1 0 1 -3.83714 -4.39219 3.01278
561 1 1 0 1 0.384219 4.26336 15.7842
562 1 1 0 1 3.72733 6.12269 21.1302
563 1 1 0 1 -0.870339 3.14072 16.0912
564 1 1 0 1 -5.86802 -4.26052 8.23654
565 1 1 0 1 6.47847 6.89558 19.0345
566 1 1 0 1 2.39448 4.17751 12.6225
567 1 1 0 1 -2.26068 4.83263 18.2401
568 1 1 0 1 4.89146 6.72318 15.5479
569 1 1 0 1 0.229249 6.82382 16.7294
570 1 1 0 1 -4.18712 5.79018 24.828
571 1 1 0 1 6.33555 7.51964 18.1235
572 1 1 0 1 -0.309455 3.40526 23.439
573 1 1 0 1 1.78222 6.1615 -4.40057
574 1 1 0 1 -2.47204 4.43784 4.97127
575 1 1 0 1 -6.39772 3.92206 -6.41343
576 1 1 0 1 -1.6486 7.07116 -0.604308
577 1 1 0 1 -5.49166 0.300819 3.90493
578 1 1 0 1 -4.94158 9.69645 13.5543
579 1 1 0 1 -3.52107 3.71078 3.71254
580 1 1 0 1 -2.49609 0.861377 11.8525
581 1 1 0 1 -2.89864 10.4677 11.731
582 1 1 0 1 1.18305 3.7678 10.0849
583 1 1 0 1 -5.36799 10.5988 11.3735
584 1 1 0 1 -4.27857 7.72254 15.4787
585 1 1 0 1 -6.76914 0.081862 13.5416
586 1 1 0 1 -1.74611 15.379 17.6389
587 1 1 0 1 -4.17596 14.4512 16.3765
588 1 1 0 1 -3.5888 0.939617 18.2371
589 1 1 0 1 -5.7984 5.66584 17.4097
590 1 1 0 1 -5.77572 4.15793 14.6848
591 1 1 0 1 -4.35627 3.48892 11.8766
592 1 1 0 1 -1.66315 0.495575 18.4765
593 1 1 0 1 0.0774025 5.30365 14.8369
594 1 1 0 1 -8.45164 -1.7116 18.0419
595 1 1 0 1 -0.251297 3.59914 -3.98157
596 1 1 0 1 -0.741335 8.839 4.29742
597 1 1 0 1 -6.6795 0.83222 5.41846
598 1 1 0 1 1.82309 7.90264 0.90507
599 1 1 0 1 1.98495 9.75666 0.481317
600 1 1 0 1 -1.23664 6.66784 4.4716
601 1 1 0 1 -6.12842 6.08139 5.822
602 1 1 0 1 0.655641 -2.53585 3.5256
603 1 1 0 1 0.827558 -7.67728 14.614
604 1 1 0 1 9.83425 7.59992 14.0479
605 1 1 0 1 -1.35187 6.5896 10.4731
606 1 1 0 1 -9.21438 -1.07944 11.9401
607 1 1 0 1 -5.85458 5.37742 6.78997
608 1 1 0 1 0.534777 -4.56128 9.0356
609 1 1 0 1 6.62607 10.342 13.8442
610 1 1 0 1 0.532199 6.86091 11.705
611 1 1 0 1 0.372211 7.03707 10.5152
612 1 1 0 1 0.941099 3.16909 23.2915
613 1 1 0 1 0.0128715 3.25977 16.9183
614 1 1 0 1 -3.23141 8.6186 25.6292
615 1 1 0 1 -9.62886 6.29 19.5783
616 1 1 0 1 -5.06919 8.2694 17.1154
617 1 1 0 1 1.27956 1.50772 -2.6409
618 1 1 0 1 -9.70703 4.97623 0.744784
619 1 1 0 1 2.05555 19.765 3.94583
620 1 1 0 1 1.54646 10.0873 8.7823
621 1 1 0 1 -2.26927 6.23024 5.05354
622 1 1 0 1 -7.60055 3.06646 2.35011
623 1 1 0 1 -3.60139 8.38125 4.95796
624 1 1 0 1 -3.70545 4.24921 5.35695
625 1 1 0 1 -1.91048 3.70249 5.58205
626 1 1 0 1 0.0413807 7.45149 12.4474
627 1 1 0 1 -8.29375 -4.40777 18.0978
628 1 1 0 1 4.38122 0.384115 6.26403
629 1 1 0 1 2.34131 12.6267 19.2077
630 1 1 0 1 3.33782 11.3235 17.4276
631 1 1 0 1 0.458593 8.47372 12.3345
632 1 1 0 1 4.98004 8.98704 15.9004
633 1 1 0 1 -11.387 10.0949 14.3629
634 1 1 0 1 -1.74843 4.79871 14.1516
635 1 1 0 1 1.6041 3.60569 17.9367
636 1 1 0 1 0.92814 3.86637 17.1738
637 1 1 0 1 -6.75103 3.53746 20.579
638 1 1 0 1 -2.54903 6.37245 23.2501
639 1 1 0 1 -3.92452 -0.940865 7.20751
640 1 1 0 1 -3.01376 12.797 5.48158
641 1 1 0 1 9.42443 6.26732 0.82096
642 1 1 0 1 -0.871421 14.028 5.09052
643 1 1 0 1 1.05783 12.0341 8.41692
644 1 1 0 1 -4.39664 7.29809 1.28964
645 1 1 0 1 -2.57393 3.02159 7.61736
646 1 1 0 1 1.00342 5.83002 6.60936
647 1 1 0 1 -4.26481 11.3558 -4.36894
648 1 1 0 1 -4.08726 12.9489 13.7778
649 1 1 0 1 -3.48126 8.57189 8.00335
650 1 1 0 1 5.7242 4.24864 12.9944
651 1 1 0 1 0.216605 9.11991 8.14408
652 1 1 0 1 -3.18375 15.8012 18.6914
653 1 1 0 1 -3.72847 16.7993 13.4254
654 1 1 0 1 0.710001 8.3406 21.3945
655 1 1 0 1 -2.59207 6.99756 4.24166
656 1 1 0 1 -4.65746 4.32086 15.0379
657 1 1 0 1 2.87263 7.36416 15.5501
658 1 1 0 1 1.10964 11.6623 26.5109
659 1 1 0 1 -2.79198 6.37095 15.5507
660 1 1 0 1 2.05399 5.25726 19.0159
661 1 1 0 1 -0.373238 8.63518 0.148227
662 1 1 0 1 2.93564 7.32583 -2.35234
663 1 1 0 1 -3.94309 7.74848 2.14862
664 1 1 0 1 -2.1203 9.44628 5.74933
665 1 1 0 1 -7.50718 0.199681 5.37929
666 1 1 0 1 7.73961 9.49957 12.8395
667 1 1 0 1 -5.24394 6.99 -2.68661
668 1 1 0 1 -8.29127 5.11477 2.26036
669 1 1 0 1 4.2902 6.17715 2.29029
670 1 1 0 1 -3.16622 6.96546 9.14705
671 1 1 0 1 2.06103 3.79074 2.94039
672 1 1 0 1 2.24253 17.8226 15.7568
673 1 1 0 1 -6.32553 16.5347 14.7656
674 1 1 0 1 -0.864374 14.3152 16.9158
675 1 1 0 1 -1.19981 11.4801 19.0945
676 1 1 0 1 -6.17388 2.70115 16.215
677 1 1 0 1 -3.5269 9.39413 18.6901
678 1 1 0 1 6.37862 3.38249 19.4684
679 1 1 0 1 -8.6085 5.71251 14.7286
680 1 1 0 1 -0.648987 6.07471 14.7244
681 1 1 0 1 -0.365875 10.7625 21.9038
682 1 1 0 1 4.29227 12.3804 22.0638
683 1 1 0 1 -2.31866 11.6541 4.93988
684 1 1 0 1 -2.13823 5.6305 0.522137
685 1 1 0 1 1.04825 13.2092 6.50932
686 1 1 0 1 -2.97951 5.99431 8.59066
687 1 1 0 1 1.34652 14.3231 4.51391
688 1 1 0 1 -2.40872 12.6616 10.8451
689 1 1 0 1 -2.52771 2.76169 6.17494
690 1 1 0 1 0.926429 7.74592 15.7305
691 1 1 0 1 -0.734297 2.82464 2.17309
692 1 1 0 1 -2.72384 9.1724 7.54632
693 1 1 0 1 0.512955 5.05154 18.806
694 1 1 0 1 -7.53023 12.2523 13.2513
695 1 1 0 1 -2.01775 11.5825 14.3657
696 1 1 0 1 -4.71422 5.10932 21.2346
697 1 1 0 1 0.535572 8.59799 18.0253
698 1 1 0 1 -6.21907 7.16821 17.6913
699 1 1 0 1 3.80343 7.278 20.8491
700 1 1 0 1 3.23798 14.217 17.177
701 1 1 0 1 -3.13052 11.934 16.4558
702 1 1 0 1 -4.47041 6.16518 19.4083
703 1 1 0 1 -1.72111 13.7465 20.3294
704 1 1 0 1 3.77979 20.547 20.1805
705 1 1 0 1 -2.25818 9.14168 3.55567
706 1 1 0 1 -1.85277 8.82219 -3.21616
707 1 1 0 1 -1.02223 25.1473 0.362955
708 1 1 0 1 6.41699 9.14112 1.52582
709 1 1 0 1 -7.01964 10.8897 2.27343
710 1 1 0 1 -0.62587 13.835 1.25537
711 1 1 0 1 -4.70817 5.0515 6.92066
712 1 1 0 1 -2.8011 13.0048 13.9799
713 1 1 0 1 -3.4227 14.1599 8.66973
714 1 1 0 1 -1.38321 11.6172 2.24999
715 1 1 0 1 -4.39387 9.35436 15.036
716 1 1 0 1 -2.77591 12.7207 18.7254
717 1 1 0 1 -4.86301 15.501 17.2915
718 1 1 0 1 -0.00085256 10.9946 14.8436
719 1 1 0 1 -4.77977 7.34411 16.6698
720 1 1 0 1 -3.79905 13.7006 22.8523
721 1 1 0 1 -10.634 12.4052 13.3479
722 1 1 0 1 6.41116 20.0671 26.5425
723 1 1 0 1 -0.887038 10.759 18.4613
724 1 1 0 1 -0.45186 14.2168 21.932
725 1 1 0 1 0.757022 14.9874 25.8038
726 1 1 0 1 -7.45265 18.052 21.8512
727 1 1 0 1 1.10514 13.2174 1.25679
728 1 1 0 1 -3.02878 14.4885 -1.35921
729 1 1 0 1 -3.49443 6.16763 -5.43185
730 1 1 0 1 -3.02199 18.4548 4.96428
731 1 1 0 1 -0.668522 16.3187 4.81758
732 1 1 0 1 4.07856 14.271 5.37108
733 1 1 0 1 -3.54059 10.8825 1.05989
734 1 1 0 1 1.61571 2.98897 3.5246
735 1 1 0 1 -6.40766 12.8698 7.5291
736 1 1 0 1 -8.56828 15.0259 -3.25963
737 1 1 0 1 2.25454 11.8086 15.8984
738 1 1 0 1 9.81506 14.8758 11.5938
739 1 1 0 1 -4.81087 6.34478 17.2551
740 1 1 0 1 -1.07735 11.1311 21.1398
741 1 1 0 1 -4.52414 8.96178 19.211
742 1 1 0 1 5.93312 9.29085 22.347
743 1 1 0 1 -1.78707 11.1839 22.0992
744 1 1 0 1 6.07818 18.3403 26.457
745 1 1 0 1 -2.42833 10.2352 21.1572
746 1 1 0 1 -1.73262 14.1342 18.9583
747 1 1 0 1 5.91905 12.9861 21.1542
748 1 1 0 1 1.94415 16.7499 29.3703
749 1 1 0 1 1.5479 12.3282 2.91634
750 1 1 0 1 2.37984 11.3297 8.27035
751 1 1 0 1 -13.2571 11.8416 8.40555
752 1 1 0 1 -0.872276 15.2362 8.35584
753 1 1 0 1 -2.50536 10.9856 8.27733
754 1 1 0 1 0.971541 11.6278 0.897564
755 1 1 0 1 1.48437 17.0924 1.69755
756 1 1 0 1 -8.27186 25.486 3.06286
757 1 1 0 1 -4.79599 13.8533 15.4233
758 1 1 0 1 -7.14185 21.3997 12.4787
759 1 1 0 1 -6.92007 7.59568 5.42432
760 1 1 0 1 -1.45548 4.41137 16.2059
761 1 1 0 1 -5.52769 17.9895 16.7831
762 1 1 0 1 -8.33991 13.3542 11.2841
763 1 1 0 1 2.98267 17.8131 13.3735
764 1 1 0 1 -4.15599 19.3227 16.2226
765 1 1 0 1 2.35416 16.1806 19.9394
766 1 1 0 1 -4.68726 14.9922 15.5385
767 1 1 0 1 -9.72676 14.5365 18.5062
768 1 1 0 1 -2.68362 12.7657 24.0163
769 1 1 0 1 4.29052 9.06593 21.7194
770 1 1 0 1 -1.30043 15.1983 25.0946
771 1 1 0 1 -5.96046 11.7174 3.77364
772 1 1 0 1 -1.68519 15.8901 12.7517
773 1 1 0 1 -2.94022 12.4307 3.31507
774 1 1 0 1 -3.70573 11.8517 13.8342
775 1 1 0 1 -6.53103 13.6066 -3.11628
776 1 1 0 1 -1.78348 11.079 9.10217
777 1 1 0 1 -4.28943 15.5531 10.6531
778 1 1 0 1 -3.52171 13.7898 14.271
779 1 1 0 1 -0.700261 17.3057 17.3846
780 1 1 0 1 -3.12663 17.2549 9.81856
781 1 1 0 1 2.38753 19.2949 21.106
782 1 1 0 1 -2.2428 17.743 15.7196
783 1 1 0 1 -2.42051 15.8436 9.21698
784 1 1 0 1 -2.62305 15.9025 21.7678
785 1 1 0 1 -4.42639 26.2898 18.2159
786 1 1 0 1 -3.56826 11.1879 19.9435
787 1 1 0 1 3.60593 12.2384 23.55
788 1 1 0 1 -10.2144 16.4859 13.4793
789 1 1 0 1 -4.62265 18.5556 21.7325
790 1 1 0 1 -2.8695 14.528 27.5135
791 1 1 0 1 -4.75164 11.2817 20.5709
792 1 1 0 1 -0.563113 9.87197 22.5232
793 1 1 0 1 -7.49747 17.3479 3.36682
794 1 1 0 1 -0.296076 18.9691 5.32975
795 1 1 0 1 2.83524 22.8481 -2.55066
796 1 1 0 1 -1.39857 17.0863 7.53753
797 1 1 0 1 -3.4767 20.2255 -0.00188974
798 1 1 0 1 0.664861 13.805 -1.99376
799 1 1 0 1 -1.3314 13.8776 7.77204
800 1 1 0 1 3.94842 5.94172 1.29302
801 1 1 0 1 8.11897 14.8374 13.2964
802 1 1 0 1 -5.14563 20.3104 9.41039
803 1 1 0 1 -0.0528084 14.5974 17.5714
804 1 1 0 1 -3.15971 16.4458 14.1076
805 1 1 0 1 -6.13218 14.6351 19.651
806 1 1 0 1 -2.28957 1.77951 4.4698
807 1 1 0 1 0.103473 17.6569 16.8166
808 1 1 0 1 0.0784625 18.2725 10.6384
809 1 1 0 1 -5.41642 17.366 14.5856
810 1 1 0 1 -1.17365 17.2891 19.4923