ITEM: TIMESTEP
10000
ITEM: NUMBER OF ATOMS
6752
ITEM: BOX BOUNDS pp pp pp
0.0000000000000000e+00 2.2000000000000000e+01
0.0000000000000000e+00 2.2000000000000000e+01
0.0000000000000000e+00 2.2000000000000000e+01
ITEM: ATOMS id mol type q mass xu yu zu
1 1 1 0 1 -2.68551 -5.04754 -1.43651
2 1 1 0 1 -5.40927 0.957954 4.14859
3 1 1 0 1 -1.5645 1.31088 5.64756
4 1 1 0 1 -6.1466 -3.1691 7.92882
5 1 1 0 1 -1.48339 2.25851 4.20241
6 1 1 0 1 -3.46864 -0.555178 9.11722
7 1 1 0 1 -4.42622 5.09701 6.31267
8 1 1 0 1 -2.20667 -3.95319 11.054
9 1 1 0 1 -0.198358 2.89793 10.2137
10 1 1 0 1 -6.8022 3.07791 9.79712
11 1 1 0 1 -4.58143 1.99659 7.35629
12 1 1 0 1 -7.065 -3.24895 14.5019
13 1 1 0 1 -0.918899 0.269618 12.8189
14 1 1 0 1 -1.18895 7.84014 13.4129
15 1 1 0 1 -7.49115 6.03672 14.2383
16 1 1 0 1 -6.33077 -3.11363 15.1436
17 1 1 0 1 2.33359 1.01707 13.6792
18 1 1 0 1 -3.69368 0.829752 21.21
19 1 1 0 1 -3.11874 3.44529 20.2692
20 1 1 0 1 -0.440503 -3.93556 17.2898
21 1 1 0 1 -3.98281 3.98649 16.2607
22 1 1 0 1 -3.39709 10.5148 17.0917
23 1 1 0 1 -5.00792 2.64988 5.4295
24 1 1 0 1 -5.99936 1.24273 -0.62263
25 1 1 0 1 -6.11823 -3.04589 -1.32045
26 1 1 0 1 0.763941 -1.05606 5.4735
27 1 1 0 1 -3.68644 -1.22092 8.12305
28 1 1 0 1 -5.38252 2.34069 1.6803
29 1 1 0 1 -2.04073 -0.83348 11.7977
30 1 1 0 1 -2.86357 -1.46341 9.84511
31 1 1 0 1 -4.02165 6.12783 13.2719
32 1 1 0 1 -5.57032 -3.7077 8.6433
33 1 1 0 1 -4.10292 1.56447 13.423
34 1 1 0 1 2.43305 3.19434 10.9391
35 1 1 0 1 -4.9372 0.819918 13.9435
36 1 1 0 1 -1.18544 2.50596 8.66535
37 1 1 0 1 -7.16032 0.68091 14.009
38 1 1 0 1 -1.7529 0.944489 18.8523
39 1 1 0 1 -1.11162 2.14748 11.0755
40 1 1 0 1 -3.61495 7.25309 21.945
41 1 1 0 1 -5.84504 0.989084 16.8398
42 1 1 0 1 -8.47011 3.44361 23.5752
43 1 1 0 1 -2.37083 9.85012 22.8593
44 1 1 0 1 -1.88939 6.53864 17.124
45 1 1 0 1 -9.66215 8.56963 7.02413
46 1 1 0 1 -9.75877 7.46179 8.8506
47 1 1 0 1 -3.37996 2.5444 -2.81613
48 1 1 0 1 -10.6237 3.76551 3.70975
49 1 1 0 1 -0.0410375 7.40784 1.9122
50 1 1 0 1 -3.49587 6.05387 1.94786
51 1 1 0 1 -4.02587 6.80998 7.01894
52 1 1 0 1 0.115843 3.68916 16.1269
53 1 1 0 1 -4.20724 1.91493 5.20778
54 1 1 0 1 -5.14284 -1.23035 12.5313
55 1 1 0 1 -4.93417 2.7341 11.5718
56 1 1 0 1 -1.04163 -1.49969 10.7614
57 1 1 0 1 -3.51261 10.1855 11.7203
58 1 1 0 1 -1.51238 9.02282 15.9721
59 1 1 0 1 -4.31703 1.74348 14.5954
60 1 1 0 1 0.0755918 5.04784 19.3585
61 1 1 0 1 -5.51873 4.72758 11.9339
62 1 1 0 1 0.241418 2.67404 19.0644
63 1 1 0 1 -0.926696 14.2506 9.3676
64 1 1 0 1 -4.44834 0.151293 17.3481
65 1 1 0 1 -5.53083 5.04104 21.2597
66 1 1 0 1 -9.39794 2.31675 25.0494
67 1 1 0 1 -4.92052 1.00816 -1.2289
68 1 1 0 1 -2.22234 3.82926 -7.9296
69 1 1 0 1 -2.88438 5.95235 -0.627674
70 1 1 0 1 -5.09042 6.92252 4.51337
71 1 1 0 1 0.707293 5.05076 5.46897
72 1 1 0 1 -10.5209 4.34838 4.59527
73 1 1 0 1 3.75493 1.59185 9.34412
74 1 1 0 1 -4.35535 3.80822 9.22224
75 1 1 0 1 -3.41573 1.16246 9.04686
76 1 1 0 1 -7.22354 -0.36969 7.52979
77 1 1 0 1 -4.38648 -2.9923 10.1184
78 1 1 0 1 -2.48866 5.12489 12.6855
79 1 1 0 1 -3.95761 1.76324 11.6882
80 1 1 0 1 2.66079 1.08149 9.00746
81 1 1 0 1 -1.37126 6.58308 14.591
82 1 1 0 1 -2.42958 1.25708 15.4545
83 1 1 0 1 -3.52065 3.7164 17.3332
84 1 1 0 1 -1.68851 2.68554 16.8526
85 1 1 0 1 -4.82259 2.0673 26.3931
86 1 1 0 1 -4.80869 4.81466 19.6565
87 1 1 0 1 -5.3472 -2.36558 22.0929
88 1 1 0 1 -1.89267 8.03823 20.3634
89 1 1 0 1 -2.89166 8.2629 -0.631259
90 1 1 0 1 0.129603 9.25551 8.16386
91 1 1 0 1 -4.35011 -1.43263 6.07145
92 1 1 0 1 -2.83633 8.65989 7.0265
93 1 1 0 1 -5.80551 10.4323 7.48112
94 1 1 0 1 -6.3965 0.122614 7.90921
95 1 1 0 1 -4.03914 7.72539 9.41425
96 1 1 0 1 -1.45523 4.03984 11.1086
97 1 1 0 1 -1.04312 8.67127 11.5267
98 1 1 0 1 -1.49748 5.20871 4.54648
99 1 1 0 1 -5.49372 9.86026 12.9035
100 1 1 0 1 -2.19867 2.86155 6.42141
101 1 1 0 1 -3.95882 3.6697 13.0332
102 1 1 0 1 -2.92155 6.22653 14.8082
103 1 1 0 1 -8.68779 14.2127 11.8368
104 1 1 0 1 -4.40279 10.3985 16.0398
105 1 1 0 1 -2.72083 9.39648 9.06231
106 1 1 0 1 -3.0897 1.55463 19.8408
107 1 1 0 1 -7.20848 12.1011 18.8387
108 1 1 0 1 -2.74577 5.29504 18.7261
109 1 1 0 1 -5.39579 7.89655 19.3818
110 1 1 0 1 -4.60096 9.37968 22.0283
111 1 1 0 1 -7.72367 1.41722 2.72261
112 1 1 0 1 -4.19229 4.11892 -0.379257
113 1 1 0 1 -0.326014 15.6258 10.2842
114 1 1 0 1 -3.10367 3.43633 2.87273
115 1 1 0 1 -1.55695 12.344 4.35015
116 1 1 0 1 -1.63395 12.1532 1.48824
117 1 1 0 1 -0.136039 10.5122 6.53083
118 1 1 0 1 -2.96595 3.69939 5.80946
119 1 1 0 1 -4.09694 0.19555 8.32142
120 1 1 0 1 -1.69017 0.034235 9.73793
121 1 1 0 1 -2.34676 4.38135 10.6384
122 1 1 0 1 -3.99632 5.87547 12.3454
123 1 1 0 1 -5.72075 5.4665 14.8872
124 1 1 0 1 -7.97164 9.57047 14.1351
125 1 1 0 1 -7.62677 11.9663 9.67848
126 1 1 0 1 -6.13572 7.88709 14.4603
127 1 1 0 1 -3.06266 8.52543 16.4334
128 1 1 0 1 -8.62138 11.5591 17.2496
129 1 1 0 1 -1.53019 5.24186 18.4846
130 1 1 0 1 -3.99985 4.00164 19.6267
131 1 1 0 1 -3.77804 3.5586 14.4398
132 1 1 0 1 -6.05919 4.39848 23.3608
133 1 1 0 1 -3.55593 7.86185 0.81362
134 1 1 0 1 -8.252 6.36274 5.75544
135 1 1 0 1 -6.47315 1.29169 4.45786
136 1 1 0 1 -2.24187 13.3145 3.26445
137 1 1 0 1 -7.73502 8.60708 6.31458
138 1 1 0 1 -6.84223 9.40648 8.59377
139 1 1 0 1 -2.77873 8.76946 5.19394
140 1 1 0 1 -6.86154 7.91666 3.34921
141 1 1 0 1 6.09034 5.92488 1.54208
142 1 1 0 1 -2.09133 2.37644 11.4722
143 1 1 0 1 -0.316053 3.73252 11.3455
144 1 1 0 1 -2.29718 3.05136 8.46811
145 1 1 0 1 -3.47093 7.07506 17.7794
146 1 1 0 1 -4.36939 12.6148 19.6805
147 1 1 0 1 -2.91824 12.7605 15.3292
148 1 1 0 1 -5.2633 11.9171 13.5634
149 1 1 0 1 -3.30552 12.1527 20.4936
150 1 1 0 1 -8.18205 6.86134 14.5312
151 1 1 0 1 -4.47431 4.66904 22.5647
152 1 1 0 1 -3.81916 5.58665 17.7917
153 1 1 0 1 -3.90801 6.996 18.9536
154 1 1 0 1 -3.84963 7.98921 27.1953
155 1 1 0 1 -2.68775 3.96698 -0.489819
156 1 1 0 1 -3.96768 3.51723 1.84201
157 1 1 0 1 -2.9564 6.77562 4.43395
158 1 1 0 1 -1.28872 8.64192 2.92607
159 1 1 0 1 -5.46044 9.5628 -1.03127
160 1 1 0 1 -8.8472 4.25552 5.3709
161 1 1 0 1 -0.575808 8.91524 4.04376
162 1 1 0 1 -5.30986 7.5854 5.61944
163 1 1 0 1 0.356831 6.73225 7.03061
164 1 1 0 1 -4.81598 5.90612 14.2867
165 1 1 0 1 -2.75295 9.92213 8.01816
166 1 1 0 1 -0.998638 6.25575 16.1549
167 1 1 0 1 -3.74702 9.51401 13.0001
168 1 1 0 1 -1.35282 12.1016 17.6445
169 1 1 0 1 -8.11634 10.765 17.6138
170 1 1 0 1 -0.876097 9.08698 20.8092
171 1 1 0 1 1.15286 10.3147 16.175
172 1 1 0 1 -1.33879 8.47612 19.5827
173 1 1 0 1 -1.81551 4.50477 16.6588
174 1 1 0 1 -2.0635 3.1555 25.1277
175 1 1 0 1 -5.66096 9.66505 22.6445
176 1 1 0 1 1.58799 9.04197 23.2225
177 1 1 0 1 -5.69254 3.88013 3.62847
178 1 1 0 1 -0.887459 18.045 6.99396
179 1 1 0 1 -4.03186 15.5581 0.0483567
180 1 1 0 1 -1.69393 11.044 2.72243
181 1 1 0 1 -3.12583 11.0261 5.97032
182 1 1 0 1 -3.88121 15.3333 6.36666
183 1 1 0 1 -2.70533 6.79358 3.06095
184 1 1 0 1 -1.17171 12.5532 8.22416
185 1 1 0 1 -6.01395 2.48287 10.8095
186 1 1 0 1 -11.4024 11.0842 7.29122
187 1 1 0 1 -6.19614 14.0797 9.83924
188 1 1 0 1 -1.58286 3.79866 10.0094
189 1 1 0 1 0.685384 13.6558 11.4948
190 1 1 0 1 -4.0123 7.72729 16.432
191 1 1 0 1 -3.11874 11.2436 19.9599
192 1 1 0 1 -2.519 10.4031 20.0706
193 1 1 0 1 -2.65941 4.69814 15.9633
194 1 1 0 1 -1.43522 11.3051 22.5639
195 1 1 0 1 -2.50834 8.99155 17.6775
196 1 1 0 1 -4.17659 1.82547 18.5783
197 1 1 0 1 -2.34851 9.57249 16.6584
198 1 1 0 1 2.92759 9.86154 22.6
199 1 1 0 1 4.04655 9.69941 -1.00012
200 1 1 0 1 1.45118 8.11716 2.23987
201 1 1 0 1 -4.69442 9.22863 2.31964
202 1 1 0 1 -4.04151 8.31809 3.14304
203 1 1 0 1 -5.87361 10.8704 2.66975
204 1 1 0 1 -2.04059 10.7622 5.72877
205 1 1 0 1 -0.118304 7.57511 5.04247
206 1 1 0 1 0.363214 8.45587 5.23091
207 1 1 0 1 -5.86789 6.13436 4.74647
208 1 1 0 1 -2.77418 7.19889 14.6104
209 1 1 0 1 -3.51978 3.85024 8.3548
210 1 1 0 1 -3.15646 9.46793 14.2443
211 1 1 0 1 -0.453393 7.90252 10.8045
212 1 1 0 1 -3.70176 11.2918 9.8998
213 1 1 0 1 2.51976 13.8789 18.2957
214 1 1 0 1 -8.8655 12.8465 20.2877
215 1 1 0 1 -5.90896 11.9433 18.338
216 1 1 0 1 -3.52416 8.53207 20.0132
217 1 1 0 1 -5.10758 12.605 25.7987
218 1 1 0 1 -2.47876 8.46491 19.5753
219 1 1 0 1 1.93803 10.1064 23.3387
220 1 1 0 1 -1.66196 10.7145 21.1783
221 1 1 0 1 3.3948 10.9214 -3.79934
222 1 1 0 1 -5.29638 9.9838 5.55627
223 1 1 0 1 -7.10138 11.3157 4.05789
224 1 1 0 1 -2.60389 10.3056 3.15009
225 1 1 0 1 -6.35538 14.8069 5.23736
226 1 1 0 1 -8.54675 13.0108 4.72398
227 1 1 0 1 -8.81651 12.6705 6.65655
228 1 1 0 1 -2.11418 14.0347 5.5482
229 1 1 0 1 0.276465 10.2692 8.4658
230 1 1 0 1 -2.53556 12.8555 5.33844
231 1 1 0 1 -2.84004 11.6265 14.7561
232 1 1 0 1 -1.46748 1.67911 12.3294
233 1 1 0 1 -2.0499 11.2124 13.715
234 1 1 0 1 -9.38012 10.9773 14.9433
235 1 1 0 1 0.207004 9.90443 19.4715
236 1 1 0 1 -11.1028 13.2023 15.1705
237 1 1 0 1 -5.23206 15.4857 20.1505
238 1 1 0 1 -5.56243 13.2985 16.0153
239 1 1 0 1 -6.08604 14.1355 17.7036
240 1 1 0 1 -4.8899 11.6361 17.5552
241 1 1 0 1 -1.4953 10.9154 20.0007
242 1 1 0 1 -0.931173 8.61014 22.6635
243 1 1 0 1 -1.49652 10.5834 1.65602
244 1 1 0 1 -5.9934 13.2159 0.669054
245 1 1 0 1 -7.12651 13.3336 3.86251
246 1 1 0 1 -1.14133 13.851 3.95392
247 1 1 0 1 -5.96156 10.8207 4.59358
248 1 1 0 1 -2.00323 4.33256 5.21796
249 1 1 0 1 -1.78051 11.967 5.33875
250 1 1 0 1 -1.69322 8.79413 9.4695
251 1 1 0 1 -4.15893 8.87344 6.94017
252 1 1 0 1 -0.453901 5.24209 7.76538
253 1 1 0 1 0.741299 4.05659 13.6324
254 1 1 0 1 1.96564 10.1712 10.7628
255 1 1 0 1 -7.67184 9.14263 9.46465
256 1 1 0 1 -10.3059 16.0778 13.9177
257 1 1 0 1 -1.15192 17.2204 19.2046
258 1 1 0 1 -0.897904 15.1835 13.863
259 1 1 0 1 -2.82577 13.8945 19.2901
260 1 1 0 1 0.588274 11.2589 16.3009
261 1 1 0 1 -3.90922 8.51964 17.4781
262 1 1 0 1 -4.28491 15.4101 24.0588
263 1 1 0 1 -1.49178 11.0768 16.4392
264 1 1 0 1 1.0459 18.725 23.8026
265 1 1 0 1 -1.75568 13.2609 0.697065
266 1 1 0 1 4.56835 14.8572 0.909967
267 1 1 0 1 -4.35132 13.5777 3.01252
268 1 1 0 1 -4.12261 11.4218 -1.46618
269 1 1 0 1 1.43333 9.0454 9.78551
270 1 1 0 1 -4.24185 13.1618 0.183352
271 1 1 0 1 -4.7259 8.99174 7.74052
272 1 1 0 1 -8.34983 13.55 8.6292
273 1 1 0 1 -4.25555 11.9131 5.13521
274 1 1 0 1 -4.71371 8.103 12.5538
275 1 1 0 1 -9.90661 6.07795 10.9798
276 1 1 0 1 -2.18127 12.175 14.1795
277 1 1 0 1 -2.57879 12.3409 9.0944
278 1 1 0 1 -1.20793 15.6162 11.6737
279 1 1 0 1 -5.54662 16.0075 12.5374
280 1 1 0 1 -8.72033 15.6546 5.40481
281 1 1 0 1 -0.335724 14.7354 20.0702
282 1 1 0 1 -5.1017 14.6552 9.15887
283 1 1 0 1 -0.585054 15.8026 14.7453
284 1 1 0 1 -1.34847 13.7923 18.9681
285 1 1 0 1 -2.76499 9.5545 19.1838
286 1 1 0 1 -5.96183 14.4095 18.6581
287 1 1 0 1 -4.21631 19.7984 1.77953
288 1 1 0 1 -0.790298 11.6593 5.18372
289 1 1 0 1 -5.33093 5.45855 6.66218
290 1 1 0 1 -3.6693 8.9611 2.14065
291 1 1 0 1 -6.72712 8.84768 14.7842
292 1 1 0 1 -5.94877 15.409 6.54822
293 1 1 0 1 -0.578763 12.0541 6.16855
294 1 1 0 1 -4.22137 12.2508 7.98344
295 1 1 0 1 -1.43289 10.2565 9.96489
296 1 1 0 1 -6.86503 11.1794 12.9374
297 1 1 0 1 -3.40501 14.0623 6.50363
298 1 1 0 1 -6.25459 9.37299 11.9258
299 1 1 0 1 0.566602 16.9924 13.4281
300 1 1 0 1 0.802153 15.3973 20.2397
301 1 1 0 1 -7.6498 16.1543 13.6602
302 1 1 0 1 -3.59254 14.8147 16.9593
303 1 1 0 1 -4.72019 15.8942 13.8909
304 1 1 0 1 -1.32493 11.7652 9.18649
305 1 1 0 1 1.86776 10.9644 16.1639
306 1 1 0 1 -1.60654 18.5059 23.1758
307 1 1 0 1 -4.66347 12.5078 14.1759
308 1 1 0 1 0.938207 19.475 31.0469
309 1 1 0 1 -2.39925 13.6738 1.61306
310 1 1 0 1 -3.42601 11.6647 1.48957
311 1 1 0 1 -6.10872 14.9598 -1.07462
312 1 1 0 1 -9.98003 11.1328 4.70066
313 1 1 0 1 -7.11896 16.2019 2.5301
314 1 1 0 1 -1.49775 9.93343 6.32689
315 1 1 0 1 -1.10571 9.39642 10.2762
316 1 1 0 1 -5.96931 13.763 1.73747
317 1 1 0 1 -5.1275 15.8341 7.0675
318 1 1 0 1 -1.96489 15.2208 8.8613
319 1 1 0 1 -2.91663 12.5564 7.38742
320 1 1 0 1 0.19596 20.2208 12.6701
321 1 1 0 1 -1.60919 12.963 14.7263
322 1 1 0 1 -0.592788 8.77036 13.78
323 1 1 0 1 -1.61039 14.2786 8.21943
324 1 1 0 1 -5.57088 11.7534 8.15003
325 1 1 0 1 -3.59082 14.3614 12.2045
326 1 1 0 1 -8.26831 16.34 18.0931
327 1 1 0 1 -2.38903 12.7546 18.7956
328 1 1 0 1 -4.15069 15.3597 19.895
329 1 1 0 1 -1.25787 12.8015 19.4849
330 1 1 0 1 -4.32643 14.906 23.0996
331 1 1 0 1 -1.56535 18.3327 4.61839
332 1 1 0 1 2.22338 18.4479 3.017
333 1 1 0 1 -2.07272 14.7023 4.43851
334 1 1 0 1 -5.29449 17.2137 -0.0121447
335 1 1 0 1 -3.05224 15.151 8.36535
336 1 1 0 1 -8.9753 10.8367 4.12955
337 1 1 0 1 -3.87846 9.80591 8.54946
338 1 1 0 1 -2.42655 13.283 9.64499
339 1 1 0 1 -9.80839 13.1708 4.70852
340 1 1 0 1 3.5799 14.6888 7.40868
341 1 1 0 1 -5.88403 11.5215 9.7036
342 1 1 0 1 -6.94851 13.8836 14.3701
343 1 1 0 1 -6.51689 13.3913 4.65746
344 1 1 0 1 -8.42254 14.3056 12.9786
345 1 1 0 1 -9.12566 12.4047 16.7695
346 1 1 0 1 6.53867 16.0757 15.5313
347 1 1 0 1 -3.08071 13.2721 18.099
348 1 1 0 1 -1.68511 13.7441 17.927
349 1 1 0 1 0.223621 16.6307 14.6488
350 1 1 0 1 -1.57739 11.8808 18.9753
351 1 1 0 1 -7.21081 16.9993 15.3176
352 1 1 0 1 -0.447257 18.3218 23.5002
353 1 1 0 1 -5.51416 16.9704 3.75003
354 1 1 0 1 3.20273 18.0978 1.33637
355 1 1 0 1 -3.36196 11.5401 7.40568
356 1 1 0 1 -5.47744 13.4626 3.46071
357 1 1 0 1 -0.498953 16.7177 2.13923
358 1 1 0 1 -2.94333 15.3883 4.15299
359 1 1 0 1 -4.72636 16.3894 4.5805
360 1 1 0 1 -0.884772 15.232 9.21251
361 1 1 0 1 -5.80162 15.5988 11.1831
362 1 1 0 1 0.398023 15.547 13.7563
363 1 1 0 1 0.087062 14.514 12.0069
364 1 1 0 1 1.54889 17.5216 12.957
365 1 1 0 1 -3.03543 10.034 5.28162
366 1 1 0 1 -6.06004 13.3359 15.1141
367 1 1 0 1 -0.949512 12.8141 10.0197
368 1 1 0 1 -4.50478 16.2574 18.0257
369 1 1 0 1 -7.86809 12.4119 12.6874
370 1 1 0 1 -3.83848 8.21896 8.26502
371 1 1 0 1 -0.241872 17.2981 22.6367
372 1 1 0 1 -4.03598 12.6862 17.5034
373 1 1 0 1 -7.94578 12.0866 20.2973
374 1 1 0 1 -5.00584 15.8317 22.8015
375 1 1 0 1 -6.40899 6.96146 3.7552
376 1 1 0 1 -6.77775 11.4156 2.11574
377 1 1 0 1 -7.40519 18.2175 3.18063
378 1 1 0 1 -5.75127 16.1014 2.88126
379 1 1 0 1 -4.61335 14.7958 -1.2716
380 1 1 0 1 -6.39489 12.9986 2.78624
381 1 1 0 1 -4.65357 16.8381 5.76491
382 1 1 0 1 -9.10624 17.5845 11.7236
383 1 1 0 1 -3.00406 17.3897 12.3123
384 1 1 0 1 0.80445 15.1524 12.6343
385 1 1 0 1 -3.62093 19.3512 14.8409
386 1 1 0 1 -3.63744 15.1994 11.4703
387 1 1 0 1 -7.46246 12.7046 15.3054
388 1 1 0 1 -3.85065 14.1257 19.2316
389 1 1 0 1 -7.27063 13.4467 17.4305
390 1 1 0 1 -3.08531 14.9939 19.5653
391 1 1 0 1 -4.19992 16.8054 16.856
392 1 1 0 1 -7.24904 16.5952 10.6629
393 1 1 0 1 -2.76824 10.4929 15.2353
394 1 1 0 1 -5.39189 17.9457 20.7702
395 1 1 0 1 -7.73829 13.0417 14.1596
396 1 1 0 1 -1.66751 17.4478 22.736
397 1 1 0 1 0.639822 17.6883 0.99246
398 1 1 0 1 -2.70339 24.1252 1.98068
399 1 1 0 1 -4.52978 14.1398 0.447127
400 1 1 0 1 -2.31656 10.8431 4.56501
401 1 1 0 1 0.272169 12.938 6.26563
402 1 1 0 1 -2.71979 16.7966 7.9999
403 1 1 0 1 -0.868574 16.6067 10.0857
404 1 1 0 1 -6.36426 19.092 2.313
405 1 1 0 1 -8.13078 16.0325 10.3404
406 1 1 0 1 -2.8478 15.8559 7.31375
407 1 1 0 1 -6.2006 17.2016 7.5699
408 1 1 0 1 -10.8511 15.8555 9.91513
409 1 1 0 1 -4.57743 15.1257 15.1053
410 1 1 0 1 -7.50924 11.7059 14.8369
411 1 1 0 1 -0.11923 17.9101 13.3897
412 1 1 0 1 -10.6311 15.1009 11.1967
413 1 1 0 1 -7.14605 19.5421 19.8257
414 1 1 0 1 -6.79836 13.3172 19.3046
415 1 1 0 1 -0.138111 15.847 19.5001
416 1 1 0 1 -2.83685 10.0565 21.5215
417 1 1 0 1 2.09357 23.9014 21.6162
418 1 1 0 1 0.360028 16.8027 23.4073
419 1 1 0 1 -5.08652 18.7828 5.18976
420 1 1 0 1 -0.319154 25.6131 8.91326
421 1 1 0 1 -5.5174 19.6878 5.17871
422 1 1 0 1 -3.09957 11.8778 4.87891
423 1 1 0 1 -1.2459 20.8547 5.80965
424 1 1 0 1 -4.39241 19.0569 8.97921
425 1 1 0 1 -5.6109 17.1859 5.51746
426 1 1 0 1 -1.21579 21.6295 3.81046
427 1 1 0 1 -0.41463 17.9232 9.60036
428 1 1 0 1 1.45158 22.8888 5.07721
429 1 1 0 1 -4.00998 26.7544 9.49498
430 1 1 0 1 2.97914 18.8191 13.6934
431 1 1 0 1 -8.53634 16.5113 14.7465
432 1 1 0 1 0.679525 21.5546 15.3211
433 1 1 0 1 -4.55688 16.7764 15.6769
434 1 1 0 1 -4.32821 14.0941 14.9075
435 1 1 0 1 -5.34719 12.9375 20.5233
436 1 1 0 1 -7.58233 18.3061 18.3478
437 1 1 0 1 0.746325 15.9692 17.3797
438 1 1 0 1 -4.26006 15.337 17.5163
439 1 1 0 1 -4.00734 18.6493 20.8514
440 1 1 0 1 -6.19107 16.9589 24.4705
441 1 1 0 1 -4.50131 15.802 -1.22583
442 1 1 0 1 -1.43947 19.9926 6.49874
443 1 1 0 1 -3.20591 19.8135 0.94227
444 1 1 0 1 -3.27104 26.9219 -0.833512
445 1 1 0 1 -4.24634 17.7407 5.22886
446 1 1 0 1 -2.03071 8.2668 8.5831
447 1 1 0 1 -5.15588 14.7526 6.57298
448 1 1 0 1 -6.11091 14.0454 7.05145
449 1 1 0 1 -4.67457 16.4354 12.9705
450 1 1 0 1 0.712864 18.2856 17.1111
451 1 1 0 1 -5.97876 18.0994 11.0673
452 1 1 0 1 -8.34902 17.9104 16.7518
453 1 1 0 1 -6.60934 14.8392 14.0931
454 1 1 0 1 -0.251049 22.4546 15.5131
455 1 1 0 1 -6.41954 10.7309 10.869
456 1 1 0 1 -6.85198 12.918 12.2248
457 1 1 0 1 -6.37726 21.1711 14.2876
458 1 1 0 1 -9.77045 19.0993 18.7869
459 1 1 0 1 -5.38562 17.2576 16.2658
460 1 1 0 1 -3.47737 13.9355 20.3432
461 1 1 0 1 -3.61652 21.7703 13.2266
462 1 1 0 1 1.26588 20.9455 18.6866
463 1 1 0 1 -1.46806 22.8044 -6.9752
464 1 1 0 1 1.74676 20.7839 2.45632
465 1 1 0 1 2.60376 25.2381 3.83723
466 1 1 0 1 1.25954 24.3351 5.05267
467 1 1 0 1 -5.74284 17.0136 11.1806
468 1 1 0 1 -5.48938 21.0561 6.02352
469 1 1 0 1 -3.83864 16.9008 8.62077
470 1 1 0 1 -2.59837 21.8608 4.2204
471 1 1 0 1 -4.21371 15.3211 7.46057
472 1 1 0 1 -1.08403 27.2278 8.60402
473 1 1 0 1 -5.20544 18.3856 14.549
474 1 1 0 1 -2.00555 17.1616 12.0714
475 1 1 0 1 -2.73094 21.1612 13.0837
476 1 1 0 1 -0.354313 22.1189 19.3257
477 1 1 0 1 -2.90193 19.1108 18.4084
478 1 1 0 1 -2.50969 15.7592 14.7836
479 1 1 0 1 -0.0414825 25.3793 13.9302
480 1 1 0 1 0.34278 21.6082 17.3209
481 1 1 0 1 -0.225481 19.4948 19.5999
482 1 1 0 1 -4.78276 27.9212 15.7923
483 1 1 0 1 0.286907 20.2746 22.6537
484 1 1 0 1 1.30374 21.7313 25.5835
485 1 1 0 1 -6.00856 -0.604174 2.74591
486 1 1 0 1 -1.07084 0.9924 -2.06087
487 1 1 0 1 -1.91205 4.86734 3.34239
488 1 1 0 1 0.161293 -0.705804 1.00074
489 1 1 0 1 -4.24522 6.06682 6.23459
490 1 1 0 1 -3.77889 0.29216 2.93927
491 1 1 0 1 -1.68287 1.00294 9.29838
492 1 1 0 1 -2.58322 -4.52552 9.03198
493 1 1 0 1 -3.72345 0.163486 10.7759
494 1 1 0 1 -4.58416 -1.17696 3.69109
495 1 1 0 1 -4.29715 0.0722719 14.3387
496 1 1 0 1 1.75098 2.64329 12.963
497 1 1 0 1 -1.73507 -2.02426 10.075
498 1 1 0 1 -0.961318 -0.708127 17.219
499 1 1 0 1 -3.19409 -2.38975 12.7406
500 1 1 0 1 -3.41703 -5.75112 18.8098
501 1 1 0 1 2.00992 -5.06115 11.9533
502 1 1 0 1 -0.160748 -4.3018 18.7461
503 1 1 0 1 -3.54718 3.2009 15.5357
504 1 1 0 1 -4.9128 -2.25509 14.5172
505 1 1 0 1 -4.07171 -2.92187 13.0946
506 1 1 0 1 -5.96685 3.41004 20.821
507 1 1 0 1 -3.48456 2.72907 0.881031
508 1 1 0 1 -3.09759 1.21298 2.7459
509 1 1 0 1 -4.22104 5.70879 1.01635
510 1 1 0 1 -4.96437 -0.0207121 0.0407605
511 1 1 0 1 1.50232 3.83234 -0.040774
512 1 1 0 1 -1.20098 6.25391 6.41039
513 1 1 0 1 -3.27969 -1.62066 6.3138
514 1 1 0 1 -3.43109 -0.043135 5.07722
515 1 1 0 1 3.66426 5.60543 4.36629
516 1 1 0 1 -5.6584 -1.20853 7.44244
517 1 1 0 1 -5.39033 -0.210466 7.38265
518 1 1 0 1 -0.764553 1.30367 6.44495
519 1 1 0 1 -1.81535 0.853298 12.7507
520 1 1 0 1 -0.456053 -0.93433 12.6263
521 1 1 0 1 -0.0602661 1.25045 11.0454
522 1 1 0 1 -3.83995 2.50581 12.6909
523 1 1 0 1 1.16231 0.343273 16.4516
524 1 1 0 1 -2.09929 1.05746 16.7449
525 1 1 0 1 -7.02742 4.17668 25.4892
526 1 1 0 1 1.85637 -2.76312 21.0144
527 1 1 0 1 -0.479676 4.87931 22.0332
528 1 1 0 1 2.47884 7.008 21.14
529 1 1 0 1 3.75581 10.0055 4.10987
530 1 1 0 1 -0.0954937 -1.98185 -0.939041
531 1 1 0 1 -3.97584 7.68568 -1.47355
532 1 1 0 1 0.201683 -3.55518 0.400307
533 1 1 0 1 -2.89809 4.10481 1.84135
534 1 1 0 1 -0.645028 2.8104 4.92142
535 1 1 0 1 0.172453 3.94655 3.81183
536 1 1 0 1 -0.963353 5.98053 5.32075
537 1 1 0 1 -3.43314 1.81138 7.31475
538 1 1 0 1 -5.16227 -1.59579 10.3109
539 1 1 0 1 -2.29659 6.66347 13.8816
540 1 1 0 1 -0.488512 5.34285 10.5605
541 1 1 0 1 -7.10022 7.24875 13.5089
542 1 1 0 1 -1.67025 5.51549 15.5047
543 1 1 0 1 -7.98139 8.79672 14.7829
544 1 1 0 1 1.8877 2.04193 14.1505
545 1 1 0 1 -2.11961 3.14111 13.2377
546 1 1 0 1 1.18441 -0.288496 14.4224
547 1 1 0 1 -5.38526 1.38312 17.8018
548 1 1 0 1 -3.67536 7.32308 24.2799
549 1 1 0 1 -2.33021 4.94219 21.5573
550 1 1 0 1 -3.31612 3.77753 22.9059
551 1 1 0 1 -2.18591 9.23743 3.07365
552 1 1 0 1 -4.74234 7.28073 -0.417588
553 1 1 0 1 -2.14387 6.81932 2.10756
554 1 1 0 1 -2.48484 4.52037 -1.41334
555 1 1 0 1 -2.8893 5.61315 3.51899
556 1 1 0 1 -2.86207 4.71077 7.58512
557 1 1 0 1 -2.03144 4.9747 8.19905
558 1 1 0 1 -0.00789908 4.61006 6.82472
559 1 1 0 1 -2.74492 -0.0659655 11.1995
560 1 1 0 1 -4.26122 0.915425 5.44162
561 1 1 0 1 -1.39553 0.702943 13.7831
562 1 1 0 1 -0.186158 4.68613 14.1875
563 1 1 0 1 -3.11822 3.00998 13.6668
564 1 1 0 1 -2.14048 -1.08928 10.6146
565 1 1 0 1 1.70607 5.68481 16.1422
566 1 1 0 1 1.71883 5.71183 14.142
567 1 1 0 1 -0.0362348 6.25703 16.9421
568 1 1 0 1 0.391842 4.63906 16.8341
569 1 1 0 1 -0.858488 4.09359 19.5916
570 1 1 0 1 -4.44258 2.90849 22.3885
571 1 1 0 1 4.74224 4.85218 19.5065
572 1 1 0 1 -2.28187 3.24866 20.7668
573 1 1 0 1 -1.52071 4.20278 -0.0468131
574 1 1 0 1 -2.24413 5.29707 5.90061
575 1 1 0 1 -3.64561 -1.11055 -2.54193
576 1 1 0 1 -3.89942 4.79902 1.53436
577 1 1 0 1 -6.13057 3.74389 5.14969
578 1 1 0 1 -4.87211 7.96707 10.5359
579 1 1 0 1 -3.04682 5.94889 9.47733
580 1 1 0 1 -4.43792 0.452925 9.23534
581 1 1 0 1 -3.19562 10.4276 9.44488
582 1 1 0 1 -1.04727 4.24442 9.27195
583 1 1 0 1 -3.63877 3.73296 10.1888
584 1 1 0 1 -0.453515 9.98858 15.1314
585 1 1 0 1 -5.31903 6.9275 16.0272
586 1 1 0 1 -1.52716 12.3152 15.4978
587 1 1 0 1 -6.64404 11.1256 16.6156
588 1 1 0 1 -5.91779 3.33651 15.4497
589 1 1 0 1 -4.8103 5.45156 21.9595
590 1 1 0 1 -2.73442 3.72243 19.2438
591 1 1 0 1 -0.648685 3.8115 14.8006
592 1 1 0 1 -3.86946 2.61727 25.0635
593 1 1 0 1 -2.13828 3.37396 17.5736
594 1 1 0 1 -4.81371 -2.11829 20.2992
595 1 1 0 1 -0.739822 2.89231 -2.36075
596 1 1 0 1 -4.55274 5.88096 3.62716
597 1 1 0 1 -7.04844 2.0483 6.66641
598 1 1 0 1 2.68921 3.132 1.21054
599 1 1 0 1 4.23771 6.91516 3.97745
600 1 1 0 1 1.0958 9.908 0.324408
601 1 1 0 1 -5.1583 6.70969 8.66647
602 1 1 0 1 4.1909 2.44251 2.59372
603 1 1 0 1 3.45772 2.83969 10.7698
604 1 1 0 1 4.34224 6.56259 10.0132
605 1 1 0 1 3.33161 5.53177 10.6109
606 1 1 0 1 -6.11598 -2.79751 13.9042
607 1 1 0 1 0.264218 7.74857 9.00402
608 1 1 0 1 -1.86998 1.30083 11.3164
609 1 1 0 1 2.64161 8.92387 12.0966
610 1 1 0 1 0.893862 6.52124 16.1817
611 1 1 0 1 -2.15362 4.27697 12.1307
612 1 1 0 1 -1.15212 3.23304 18.5763
613 1 1 0 1 0.691745 3.2254 17.8082
614 1 1 0 1 -2.29902 4.50464 22.6279
615 1 1 0 1 -7.04667 4.52644 22.2461
616 1 1 0 1 -1.0986 3.28723 17.6027
617 1 1 0 1 0.715985 4.04223 1.97172
618 1 1 0 1 -4.07182 8.15186 -0.393391
619 1 1 0 1 -1.72162 14.7258 3.44884
620 1 1 0 1 -0.887641 5.65317 3.34582
621 1 1 0 1 -3.92411 4.26074 3.99884
622 1 1 0 1 -6.77331 8.64509 7.72538
623 1 1 0 1 -7.34515 5.83724 2.15825
624 1 1 0 1 -3.13962 3.4331 3.90741
625 1 1 0 1 -2.94934 8.40906 9.29724
626 1 1 0 1 -2.01419 8.21446 12.0598
627 1 1 0 1 -5.66561 -0.185496 16.1014
628 1 1 0 1 3.97512 2.43868 6.40742
629 1 1 0 1 -0.345142 8.46822 12.5705
630 1 1 0 1 3.768 11.5803 14.8122
631 1 1 0 1 -3.43845 10.275 10.5889
632 1 1 0 1 1.53587 2.63138 17.4535
633 1 1 0 1 -11.4139 11.4168 17.4845
634 1 1 0 1 -1.24954 6.61182 19.2013
635 1 1 0 1 -1.05415 6.3732 17.6145
636 1 1 0 1 -4.08768 5.24142 16.0886
637 1 1 0 1 -6.37403 2.64771 23.0897
638 1 1 0 1 -1.28928 6.24017 20.5766
639 1 1 0 1 -3.29593 3.96969 6.94645
640 1 1 0 1 1.372 7.70767 -0.816883
641 1 1 0 1 1.62883 4.60893 2.31443
642 1 1 0 1 -2.97068 6.36384 0.598133
643 1 1 0 1 -0.801375 12.7465 3.57672
644 1 1 0 1 -3.34442 4.85059 5.83409
645 1 1 0 1 -3.39596 8.43705 6.11002
646 1 1 0 1 1.77235 4.14329 8.31538
647 1 1 0 1 -1.66675 8.81591 1.78359
648 1 1 0 1 -6.01643 9.52094 10.7965
649 1 1 0 1 -0.419424 10.6252 9.1206
650 1 1 0 1 0.841826 8.23347 12.2565
651 1 1 0 1 -0.810473 9.45744 7.73482
652 1 1 0 1 -2.93918 12.9227 16.4547
653 1 1 0 1 -5.68222 14.2451 14.4653
654 1 1 0 1 2.02747 10.7132 20.5428
655 1 1 0 1 -3.76779 8.7465 13.8659
656 1 1 0 1 -5.67769 4.78067 18.9004
657 1 1 0 1 1.64174 3.30299 18.783
658 1 1 0 1 4.63951 10.1443 22.6603
659 1 1 0 1 -3.85505 6.91395 14.5117
660 1 1 0 1 0.0940247 9.57446 20.4875
661 1 1 0 1 -3.49874 8.74407 0.263949
662 1 1 0 1 -1.23821 9.20628 -0.169608
663 1 1 0 1 -5.8717 5.40817 1.65165
664 1 1 0 1 -3.77516 10.4723 6.8729
665 1 1 0 1 -6.31442 4.74894 5.30625
666 1 1 0 1 0.902102 9.7198 10.8266
667 1 1 0 1 -3.38997 4.89209 0.536864
668 1 1 0 1 -5.05628 3.93159 5.64755
669 1 1 0 1 0.0432893 9.96374 7.37862
670 1 1 0 1 -1.86491 9.444 8.47355
671 1 1 0 1 1.62887 3.41519 10.3494
672 1 1 0 1 -3.87363 13.34 13.4307
673 1 1 0 1 -1.46102 11.5379 14.5812
674 1 1 0 1 -1.965 7.19866 15.3795
675 1 1 0 1 0.122628 9.73135 17.3188
676 1 1 0 1 -5.40904 9.17297 16.9133
677 1 1 0 1 -0.71192 11.7115 19.8544
678 1 1 0 1 -0.178011 5.17509 20.8396
679 1 1 0 1 -2.30358 6.51952 19.7494
680 1 1 0 1 -1.56741 5.67101 12.1685
681 1 1 0 1 -0.4876 11.6674 18.4543
682 1 1 0 1 1.15111 9.77582 20.167
683 1 1 0 1 -0.748459 11.1936 3.59897
684 1 1 0 1 -3.04242 7.06722 1.35954
685 1 1 0 1 -1.17202 12.5495 11.1671
686 1 1 0 1 0.42427 7.67413 5.93584
687 1 1 0 1 0.355512 17.806 5.1621
688 1 1 0 1 -0.663362 15.1771 7.56653
689 1 1 0 1 -1.10357 7.20494 5.66649
690 1 1 0 1 -1.45363 6.8161 10.3456
691 1 1 0 1 0.607389 2.45406 7.1655
692 1 1 0 1 2.72176 9.2159 8.0807
693 1 1 0 1 -2.9155 5.79802 16.2289
694 1 1 0 1 -4.56529 13.4056 15.603
695 1 1 0 1 -1.18276 9.42737 17.2172
696 1 1 0 1 -0.956211 7.40722 17.8037
697 1 1 0 1 -4.58665 8.61819 16.5401
698 1 1 0 1 -8.94385 10.263 19.0592
699 1 1 0 1 -0.229586 10.8852 19.647
700 1 1 0 1 -1.4757 14.6577 15.7136
701 1 1 0 1 -2.28823 10.5284 18.8933
702 1 1 0 1 -4.53424 7.46567 17.2951
703 1 1 0 1 -1.67744 11.2076 18.2289
704 1 1 0 1 -2.64816 18.9029 22.2665
705 1 1 0 1 -1.02192 10.5646 5.14215
706 1 1 0 1 -2.25817 8.57876 0.85789
707 1 1 0 1 -1.70523 18.9507 -0.897863
708 1 1 0 1 -0.569792 11.1262 -1.19856
709 1 1 0 1 -3.22797 9.55096 6.51106
710 1 1 0 1 -0.774528 13.668 8.3486
711 1 1 0 1 -1.89955 9.31322 7.16504
712 1 1 0 1 -5.38554 10.6387 12.2979
713 1 1 0 1 -2.71789 13.8212 8.56287
714 1 1 0 1 1.64051 10.1161 4.93699
715 1 1 0 1 -5.71834 11.0469 13.4351
716 1 1 0 1 -3.5438 13.6528 15.9933
717 1 1 0 1 -3.46929 12.3187 12.5553
718 1 1 0 1 1.13405 11.8552 15.5552
719 1 1 0 1 -0.947692 10.3366 17.6993
720 1 1 0 1 -0.171224 12.381 17.6578
721 1 1 0 1 -4.38166 13.6803 17.7185
722 1 1 0 1 3.03172 15.2269 21.6707
723 1 1 0 1 -1.11359 7.35357 16.7803
724 1 1 0 1 -1.75233 14.7738 18.7775
725 1 1 0 1 -0.925037 12.6817 24.6101
726 1 1 0 1 -1.95336 14.0322 24.604
727 1 1 0 1 -1.75082 13.1349 2.18854
728 1 1 0 1 -3.00413 12.1741 -3.78789
729 1 1 0 1 -4.62145 10.4624 -1.75717
730 1 1 0 1 -0.903731 15.5784 -0.259412
731 1 1 0 1 0.0674358 14.3058 2.28202
732 1 1 0 1 2.39963 11.0763 1.46464
733 1 1 0 1 -2.34542 9.01324 6.16779
734 1 1 0 1 -0.306792 9.5239 9.10214
735 1 1 0 1 -1.58642 15.9996 6.10473
736 1 1 0 1 -4.47817 12.2622 2.7833
737 1 1 0 1 -0.563516 9.53548 12.0678
738 1 1 0 1 7.04741 14.7774 9.13153
739 1 1 0 1 -2.36424 10.0663 11.9927
740 1 1 0 1 -3.09166 11.2712 18.9334
741 1 1 0 1 -1.55398 10.3632 13.9335
742 1 1 0 1 -0.662039 10.0458 21.1938
743 1 1 0 1 -1.3114 12.1456 20.7321
744 1 1 0 1 0.0356682 11.8504 25.0749
745 1 1 0 1 1.69689 11.5494 21.3031
746 1 1 0 1 -1.19572 10.2385 22.1834
747 1 1 0 1 -0.871765 14.2114 22.5096
748 1 1 0 1 -0.58858 11.238 23.5689
749 1 1 0 1 -0.642226 14.0952 6.6317
750 1 1 0 1 1.42799 8.18807 5.04807
751 1 1 0 1 -8.33965 12.3327 3.47247
752 1 1 0 1 -2.6681 17.3058 -0.328146
753 1 1 0 1 0.863705 13.4943 7.69808
754 1 1 0 1 -0.618059 10.0487 1.82794
755 1 1 0 1 1.20888 14.6373 5.40263
756 1 1 0 1 -5.89803 16.509 4.66229
757 1 1 0 1 -1.62871 12.1187 12.2761
758 1 1 0 1 -2.20856 12.4199 11.3428
759 1 1 0 1 -4.41105 10.0819 11.3607
760 1 1 0 1 0.91911 8.86144 15.367
761 1 1 0 1 -1.48226 14.1326 14.511
762 1 1 0 1 -2.79096 13.6409 11.9808
763 1 1 0 1 -2.02333 14.1019 12.6331
764 1 1 0 1 -3.28861 15.6009 15.346
765 1 1 0 1 -1.27454 13.4175 20.6105
766 1 1 0 1 1.24846 12.6165 16.5889
767 1 1 0 1 -3.26827 14.6548 23.2674
768 1 1 0 1 -3.4683 13.9435 22.4236
769 1 1 0 1 3.6772 11.4825 21.7759
770 1 1 0 1 -2.4941 17.292 25.0676
771 1 1 0 1 -1.64052 16.4561 2.40143
772 1 1 0 1 -1.43132 13.1763 9.26024
773 1 1 0 1 -2.56812 12.6737 2.28776
774 1 1 0 1 0.58642 15.433 9.21911
775 1 1 0 1 -3.86347 14.3453 2.05627
776 1 1 0 1 0.770293 13.1665 8.85427
777 1 1 0 1 -1.7143 16.9879 8.5716
778 1 1 0 1 -2.52348 11.9661 8.11344
779 1 1 0 1 0.309803 14.7661 14.6867
780 1 1 0 1 -3.80514 14.1934 11.0872
781 1 1 0 1 0.30982 12.2072 16.6589
782 1 1 0 1 -3.18675 13.789 14.8221
783 1 1 0 1 -4.88808 17.5227 17.3628
784 1 1 0 1 -2.23321 15.771 19.0949
785 1 1 0 1 -4.29667 15.59 16.1913
786 1 1 0 1 -3.2807 12.0119 22.1261
787 1 1 0 1 3.27328 13.6972 16.937
788 1 1 0 1 -6.18521 17.7012 14.784
789 1 1 0 1 -3.82062 17.3102 18.7411
790 1 1 0 1 1.34064 13.178 24.2052
791 1 1 0 1 1.20558 11.7479 16.9828
792 1 1 0 1 0.554808 10.4521 20.8039
793 1 1 0 1 -5.91773 11.9356 2.33231
794 1 1 0 1 2.37166 14.8312 4.80568
795 1 1 0 1 2.81161 16.1225 1.71986
796 1 1 0 1 -0.816026 18.6725 5.25948
797 1 1 0 1 -2.65676 17.5207 7.28867
798 1 1 0 1 -5.0699 17.5958 6.52873
799 1 1 0 1 -2.75317 14.9466 6.79009
800 1 1 0 1 2.33281 6.04914 5.7506
801 1 1 0 1 2.69779 13.5501 13.0185
802 1 1 0 1 -3.54199 17.9404 8.67848
803 1 1 0 1 -4.05773 14.5401 15.9522
804 1 1 0 1 -2.58634 15.7626 11.9054
805 1 1 0 1 -2.43389 14.5502 16.1115
806 1 1 0 1 0.785746 9.12036 7.06272
807 1 1 0 1 -3.10054 13.6379 17.0963
808 1 1 0 1 0.417196 21.3355 13.3001
809 1 1 0 1 -4.17462 16.724 14.6842