ITEM: TIMESTEP
30000
ITEM: NUMBER OF ATOMS
6752
ITEM: BOX BOUNDS pp pp pp
0.0000000000000000e+00 2.2000000000000000e+01
0.0000000000000000e+00 2.2000000000000000e+01
0.0000000000000000e+00 2.2000000000000000e+01
ITEM: ATOMS id mol type q mass xu yu zu
1 1 1 0 1 -4.02344 -7.1523 3.52703
2 1 1 0 1 -1.83361 5.76786 -3.99722
3 1 1 0 1 -1.95703 1.18703 1.11627
4 1 1 0 1 -8.94118 1.12549 3.93669
5 1 1 0 1 4.74355 7.88813 1.94277
6 1 1 0 1 -16.892 -2.71882 7.97482
7 1 1 0 1 5.10895 6.23432 6.87896
8 1 1 0 1 4.36732 -5.1257 13.9175
9 1 1 0 1 0.675737 -3.18898 10.4089
10 1 1 0 1 -7.92457 -5.71479 13.7013
11 1 1 0 1 2.85336 -4.1739 -0.432538
12 1 1 0 1 -4.45947 -4.19361 13.2662
13 1 1 0 1 8.64794 3.30379 11.5047
14 1 1 0 1 -4.17567 11.3879 9.72397
15 1 1 0 1 -6.97192 4.76749 8.39712
16 1 1 0 1 -3.78875 -5.60878 15.8612
17 1 1 0 1 -1.78255 -3.49953 14.6753
18 1 1 0 1 -8.42588 -8.19606 24.6839
19 1 1 0 1 -6.27451 3.19505 17.0286
20 1 1 0 1 -7.67505 4.22678 20.3929
21 1 1 0 1 -6.02689 4.79366 17.1799
22 1 1 0 1 -1.22818 8.53729 19.1992
23 1 1 0 1 -12.3003 -2.48109 7.47562
24 1 1 0 1 -10.6861 6.48921 3.46134
25 1 1 0 1 -1.20081 1.47838 -6.04858
26 1 1 0 1 2.76925 -6.18913 5.46826
27 1 1 0 1 -4.70572 -0.544042 11.6946
28 1 1 0 1 -3.59764 1.82659 -1.09651
29 1 1 0 1 -1.53065 -3.63883 16.1053
30 1 1 0 1 -3.50682 1.92628 19.6089
31 1 1 0 1 -3.69785 10.8322 8.81791
32 1 1 0 1 -5.57765 -2.11483 5.70316
33 1 1 0 1 -10.2226 -1.42106 11.9424
34 1 1 0 1 -4.58559 7.38546 12.8597
35 1 1 0 1 -0.394132 7.81295 13.6356
36 1 1 0 1 4.54269 3.59882 5.88681
37 1 1 0 1 -2.14659 0.0628029 14.6893
38 1 1 0 1 1.63534 2.20219 24.2614
39 1 1 0 1 -2.71219 6.97042 8.38127
40 1 1 0 1 -2.5094 6.65292 18.3796
41 1 1 0 1 -5.43186 -1.79887 15.558
42 1 1 0 1 -5.38511 1.39344 23.9449
43 1 1 0 1 -3.79581 8.78147 16.8146
44 1 1 0 1 -5.7518 9.07284 17.3544
45 1 1 0 1 -12.8934 7.0215 0.359588
46 1 1 0 1 -5.84883 2.82516 5.21051
47 1 1 0 1 -5.5885 -0.573931 3.83252
48 1 1 0 1 -6.90393 14.3629 0.564319
49 1 1 0 1 -8.43373 6.65604 1.5146
50 1 1 0 1 -5.93748 6.64966 -1.39323
51 1 1 0 1 0.224102 1.14815 1.32235
52 1 1 0 1 2.15106 4.02457 15.556
53 1 1 0 1 -3.17243 -1.594 2.22509
54 1 1 0 1 -7.98236 -4.54508 21.1085
55 1 1 0 1 -3.29934 0.960881 7.24697
56 1 1 0 1 -5.85818 0.490648 6.10359
57 1 1 0 1 -6.53749 9.57713 15.5577
58 1 1 0 1 -3.46077 9.65951 12.5849
59 1 1 0 1 -5.12215 3.08972 9.3642
60 1 1 0 1 1.12864 1.24757 24.0843
61 1 1 0 1 -4.47732 9.11489 14.6556
62 1 1 0 1 2.64347 2.43591 23.589
63 1 1 0 1 0.308674 10.3691 3.22004
64 1 1 0 1 -1.24076 0.370752 14.5919
65 1 1 0 1 -12.0328 -6.12271 18.9967
66 1 1 0 1 -2.51466 7.39076 25.5805
67 1 1 0 1 -8.32439 -4.85346 -3.38545
68 1 1 0 1 -4.90639 4.87661 -10.5284
69 1 1 0 1 -3.42738 7.30941 1.76225
70 1 1 0 1 -2.4487 10.2785 1.6681
71 1 1 0 1 1.88626 0.330642 4.47205
72 1 1 0 1 -11.7152 7.31121 0.241443
73 1 1 0 1 0.0937315 0.717982 2.85555
74 1 1 0 1 -1.97631 0.365774 16.6065
75 1 1 0 1 -1.29116 -0.24251 6.05617
76 1 1 0 1 0.764701 -4.09485 10.7082
77 1 1 0 1 -9.42583 -2.9023 6.59301
78 1 1 0 1 -0.556946 3.4708 12.1615
79 1 1 0 1 -0.300888 5.54731 11.8793
80 1 1 0 1 -0.109107 -4.97182 12.0261
81 1 1 0 1 -2.63931 8.77178 16.432
82 1 1 0 1 -2.82516 -4.92041 12.7845
83 1 1 0 1 -4.45446 0.757891 17.3358
84 1 1 0 1 2.00494 6.10601 12.9367
85 1 1 0 1 -5.34995 -2.47996 25.0748
86 1 1 0 1 -2.23543 -5.85886 18.0992
87 1 1 0 1 -1.1065 5.20679 22.7235
88 1 1 0 1 -3.29229 5.42239 16.8303
89 1 1 0 1 -3.82784 9.23597 3.16049
90 1 1 0 1 -1.08213 11.1593 8.7392
91 1 1 0 1 -1.86152 -3.04027 10.7676
92 1 1 0 1 2.66102 7.02472 2.5947
93 1 1 0 1 0.104274 8.76688 2.37825
94 1 1 0 1 -2.78584 -4.67223 1.85563
95 1 1 0 1 -3.47237 11.1595 6.82287
96 1 1 0 1 0.779806 4.4002 0.758172
97 1 1 0 1 -7.35335 8.27157 11.1995
98 1 1 0 1 5.24827 4.37073 8.91431
99 1 1 0 1 -0.0175464 10.0925 4.38695
100 1 1 0 1 -1.31384 3.06266 2.77129
101 1 1 0 1 -6.27265 3.81356 7.6511
102 1 1 0 1 -3.45243 4.24336 10.3638
103 1 1 0 1 -8.27639 10.07 10.7443
104 1 1 0 1 -2.12164 17.4231 14.6812
105 1 1 0 1 -0.774117 2.66917 1.94586
106 1 1 0 1 0.94756 4.40353 19.18
107 1 1 0 1 -7.52476 9.41328 15.7622
108 1 1 0 1 7.93933 7.98168 15.4991
109 1 1 0 1 -10.4054 4.05113 23.6298
110 1 1 0 1 -5.78425 3.56096 25.2308
111 1 1 0 1 -7.3956 0.294412 1.74206
112 1 1 0 1 -2.90004 9.54563 -4.06014
113 1 1 0 1 -3.61249 6.38238 17.0946
114 1 1 0 1 2.43758 7.2526 4.32042
115 1 1 0 1 -7.48949 11.3909 2.7044
116 1 1 0 1 -1.47623 13.403 10.1067
117 1 1 0 1 -4.41297 8.4368 4.30124
118 1 1 0 1 -2.18604 3.85348 1.40294
119 1 1 0 1 -6.99378 6.38254 9.99889
120 1 1 0 1 -2.46705 2.99965 4.00404
121 1 1 0 1 -2.23896 2.66436 2.88872
122 1 1 0 1 0.0148678 4.79515 8.17943
123 1 1 0 1 -4.58731 0.674997 13.3959
124 1 1 0 1 -8.76187 10.1791 15.3585
125 1 1 0 1 -8.20232 7.50779 3.57391
126 1 1 0 1 -5.93136 6.04556 23.5299
127 1 1 0 1 -1.6881 8.32895 15.5815
128 1 1 0 1 -11.6367 9.42377 12.3012
129 1 1 0 1 -4.34833 6.39905 25.8792
130 1 1 0 1 -4.70764 6.40673 9.84337
131 1 1 0 1 -11.1023 1.97287 5.77052
132 1 1 0 1 -7.08011 1.7344 25.2933
133 1 1 0 1 1.78408 5.70447 3.96404
134 1 1 0 1 -7.12922 8.2786 7.67835
135 1 1 0 1 -5.23371 0.67011 4.14549
136 1 1 0 1 -0.253707 17.3843 2.92316
137 1 1 0 1 -10.0708 5.04336 9.22573
138 1 1 0 1 -9.32325 10.8607 18.6446
139 1 1 0 1 1.26627 3.89865 6.15783
140 1 1 0 1 -11.1408 11.5656 -1.54964
141 1 1 0 1 3.54985 7.39914 0.469652
142 1 1 0 1 -4.12764 2.43819 9.59651
143 1 1 0 1 0.667479 -0.0813428 10.5039
144 1 1 0 1 0.200971 -0.965536 10.2795
145 1 1 0 1 -8.11757 11.1054 18.6964
146 1 1 0 1 -9.51203 9.56202 20.4071
147 1 1 0 1 0.952676 25.0498 15.9423
148 1 1 0 1 -3.99936 13.6735 12.8731
149 1 1 0 1 -10.3459 0.807158 20.502
150 1 1 0 1 -9.15684 6.79478 4.23335
151 1 1 0 1 -5.81865 6.85785 18.5388
152 1 1 0 1 -3.89257 -0.579622 20.2964
153 1 1 0 1 -6.77037 11.0997 22.9459
154 1 1 0 1 -5.51115 5.36282 22.9268
155 1 1 0 1 -5.09942 7.34829 -6.74134
156 1 1 0 1 -1.8512 5.71981 -1.91475
157 1 1 0 1 -5.39224 13.3237 2.34428
158 1 1 0 1 -2.24031 15.7192 4.70022
159 1 1 0 1 -7.33988 6.88471 0.565599
160 1 1 0 1 -2.92307 5.0071 3.27106
161 1 1 0 1 -1.546 11.0698 5.86187
162 1 1 0 1 -5.484 8.09719 7.47002
163 1 1 0 1 1.47742 9.50943 2.15566
164 1 1 0 1 -8.32004 7.8316 13.3598
165 1 1 0 1 -2.22109 0.648113 13.7599
166 1 1 0 1 -3.44855 13.9676 23.0178
167 1 1 0 1 -6.596 17.6443 17.6362
168 1 1 0 1 -9.65167 6.87613 21.0057
169 1 1 0 1 -10.4891 14.9868 14.1745
170 1 1 0 1 5.27139 8.87295 22.1569
171 1 1 0 1 -4.48391 13.9201 23.8405
172 1 1 0 1 -0.318363 7.93039 19.3868
173 1 1 0 1 -4.04769 1.90166 16.9554
174 1 1 0 1 5.86337 6.4642 23.8358
175 1 1 0 1 -4.69561 8.13912 18.7398
176 1 1 0 1 1.03723 2.80444 25.5989
177 1 1 0 1 -6.01674 5.40222 -1.11422
178 1 1 0 1 -0.233892 20.5682 7.66974
179 1 1 0 1 -6.12778 16.3915 3.43656
180 1 1 0 1 -0.939555 18.0801 -2.90426
181 1 1 0 1 -11.2584 16.5185 1.0116
182 1 1 0 1 -7.41455 13.9855 4.4992
183 1 1 0 1 -6.53643 17.4073 -0.0406433
184 1 1 0 1 -0.941291 9.64484 7.03154
185 1 1 0 1 -9.57168 1.08803 10.2191
186 1 1 0 1 -14.1252 15.7398 13.4055
187 1 1 0 1 -5.90836 15.3642 13.0588
188 1 1 0 1 0.756284 0.193309 14.2635
189 1 1 0 1 -7.46914 11.9019 16.5484
190 1 1 0 1 -6.77622 2.92779 14.8949
191 1 1 0 1 -3.92473 9.79639 26.9634
192 1 1 0 1 -4.70413 4.3912 10.2378
193 1 1 0 1 -2.7842 5.35706 21.3627
194 1 1 0 1 6.43602 9.78587 17.4795
195 1 1 0 1 -7.3754 5.21842 13.7283
196 1 1 0 1 -3.60824 8.59219 19.6845
197 1 1 0 1 -1.96216 3.40303 16.2674
198 1 1 0 1 8.04439 4.43981 25.3194
199 1 1 0 1 -1.27343 11.8936 4.19821
200 1 1 0 1 5.30174 8.20105 8.97137
201 1 1 0 1 -1.22935 18.8211 -3.69949
202 1 1 0 1 -3.32036 2.21085 3.66446
203 1 1 0 1 -4.98766 10.5673 4.98216
204 1 1 0 1 0.880491 4.35497 13.8746
205 1 1 0 1 4.5939 3.18837 -0.76728
206 1 1 0 1 3.19993 6.86794 6.92211
207 1 1 0 1 -2.56412 6.89008 2.473
208 1 1 0 1 -1.4666 3.04312 6.75135
209 1 1 0 1 -0.591197 1.98549 -0.082029
210 1 1 0 1 -5.72085 6.93248 4.35783
211 1 1 0 1 -2.54754 8.5754 5.58499
212 1 1 0 1 -13.6218 9.22388 13.5686
213 1 1 0 1 -3.64261 13.5718 24.8043
214 1 1 0 1 -13.3839 27.1008 18.8626
215 1 1 0 1 -7.14703 17.789 12.207
216 1 1 0 1 -10.2137 11.7168 18.4597
217 1 1 0 1 -9.68806 16.4754 27.5379
218 1 1 0 1 0.573603 5.46055 25.8787
219 1 1 0 1 3.8606 12.1205 25.8328
220 1 1 0 1 3.311 17.8901 20.5518
221 1 1 0 1 14.0525 7.08552 -1.28049
222 1 1 0 1 -6.40018 15.6389 -3.06448
223 1 1 0 1 -11.3445 11.1786 0.67246
224 1 1 0 1 -6.1375 7.97723 -5.00154
225 1 1 0 1 -9.39458 21.3169 6.72521
226 1 1 0 1 -10.5362 11.2168 7.32799
227 1 1 0 1 -8.89369 15.0778 8.56998
228 1 1 0 1 -8.47795 16.5214 2.02955
229 1 1 0 1 7.94845 8.75803 11.1705
230 1 1 0 1 -2.67938 14.8367 11.6971
231 1 1 0 1 -3.4245 7.44553 13.0379
232 1 1 0 1 -0.0681163 -1.36706 12.188
233 1 1 0 1 -0.19617 8.68566 14.2299
234 1 1 0 1 -10.2088 14.5544 12.0707
235 1 1 0 1 -4.74246 9.28556 18.1049
236 1 1 0 1 -7.45969 6.73593 11.7446
237 1 1 0 1 -12.8176 13.3002 17.6458
238 1 1 0 1 -6.09026 11.8054 14.6272
239 1 1 0 1 -2.244 8.82598 13.9451
240 1 1 0 1 -5.00124 14.2023 9.93274
241 1 1 0 1 -4.35549 7.63747 18.0327
242 1 1 0 1 -4.43967 -0.168552 22.3122
243 1 1 0 1 -4.84596 8.45023 -1.88476
244 1 1 0 1 -0.562905 7.9689 -3.68829
245 1 1 0 1 -7.685 15.6617 -0.748018
246 1 1 0 1 -2.78599 9.00692 1.46428
247 1 1 0 1 -7.18732 11.5265 7.95644
248 1 1 0 1 -0.783765 -1.56428 9.61648
249 1 1 0 1 -9.40106 10.525 3.96824
250 1 1 0 1 2.31368 8.30012 4.30696
251 1 1 0 1 -5.90585 8.07067 5.7835
252 1 1 0 1 -0.550911 2.98836 7.49775
253 1 1 0 1 2.32687 0.528636 18.6026
254 1 1 0 1 0.86769 10.1687 19.6107
255 1 1 0 1 -9.92961 2.46125 7.61586
256 1 1 0 1 -8.90316 18.2554 8.17475
257 1 1 0 1 1.53325 15.109 17.904
258 1 1 0 1 0.323735 13.4412 20.7732
259 1 1 0 1 -5.66717 13.5668 20.8237
260 1 1 0 1 -1.2595 13.017 21.2807
261 1 1 0 1 -3.97243 10.1247 17.9591
262 1 1 0 1 -7.01732 9.71364 18.0595
263 1 1 0 1 5.9303 15.5662 17.8309
264 1 1 0 1 -0.0537469 17.4378 22.9256
265 1 1 0 1 -4.71209 15.3927 1.22619
266 1 1 0 1 7.45631 20.6636 8.38297
267 1 1 0 1 -0.38391 15.981 8.34621
268 1 1 0 1 -4.42511 3.32078 -2.48547
269 1 1 0 1 0.679967 7.7057 9.92063
270 1 1 0 1 -4.51683 16.8132 0.121883
271 1 1 0 1 -3.81661 7.02578 9.09023
272 1 1 0 1 -8.18754 9.86001 14.6221
273 1 1 0 1 -1.62105 15.4601 10.6539
274 1 1 0 1 -10.7882 9.23495 6.93195
275 1 1 0 1 -8.45827 -1.34514 11.1161
276 1 1 0 1 0.286697 15.6262 10.2265
277 1 1 0 1 -8.46927 9.01355 12.6113
278 1 1 0 1 2.10237 11.9897 21.4257
279 1 1 0 1 -4.39485 17.8141 15.8064
280 1 1 0 1 -5.86594 12.9507 8.83899
281 1 1 0 1 0.106511 11.5735 26.7603
282 1 1 0 1 -2.7116 12.7828 7.96804
283 1 1 0 1 0.722063 11.9351 16.2059
284 1 1 0 1 -6.92841 17.0694 13.0265
285 1 1 0 1 -6.96162 2.26882 17.0301
286 1 1 0 1 -6.60747 10.0519 23.3719
287 1 1 0 1 -7.63039 20.9301 4.71553
288 1 1 0 1 -5.34096 14.6875 -2.5542
289 1 1 0 1 -9.34867 0.529895 5.80628
290 1 1 0 1 -3.73333 11.7255 5.63066
291 1 1 0 1 -9.20466 0.587341 11.2439
292 1 1 0 1 -6.78293 11.9666 10.4477
293 1 1 0 1 2.96027 7.78413 6.57558
294 1 1 0 1 -3.31084 9.70721 8.73837
295 1 1 0 1 -4.90325 7.75837 6.29711
296 1 1 0 1 -2.41728 13.4235 14.0247
297 1 1 0 1 -6.93774 11.9782 4.25917
298 1 1 0 1 -8.01452 4.5715 19.287
299 1 1 0 1 -1.65181 17.6277 13.7828
300 1 1 0 1 1.35112 20.8603 19.1774
301 1 1 0 1 1.72317 17.2859 21.3345
302 1 1 0 1 -2.96819 15.6853 13.354
303 1 1 0 1 -12.8123 13.5178 4.82862
304 1 1 0 1 2.20563 2.02561 8.57928
305 1 1 0 1 8.41253 10.9796 22.7799
306 1 1 0 1 -4.90918 13.5887 22.25
307 1 1 0 1 -0.469928 17.0274 20.9971
308 1 1 0 1 4.83796 27.906 27.7843
309 1 1 0 1 1.12764 12.6443 5.10088
310 1 1 0 1 2.72227 12.2696 6.43956
311 1 1 0 1 -12.5344 9.27252 -4.67586
312 1 1 0 1 -6.27213 7.08104 5.819
313 1 1 0 1 -11.5092 13.447 4.85961
314 1 1 0 1 -3.58634 8.29847 2.29763
315 1 1 0 1 3.07645 8.70275 7.30846
316 1 1 0 1 -10.7636 21.5577 11.0196
317 1 1 0 1 -2.90881 15.4099 9.58297
318 1 1 0 1 -3.65124 19.4847 11.6888
319 1 1 0 1 -4.55987 11.7105 4.76337
320 1 1 0 1 4.28214 18.2973 5.39698
321 1 1 0 1 -2.57836 14.2038 18.0895
322 1 1 0 1 -4.37483 12.834 21.1244
323 1 1 0 1 -4.92177 14.9162 5.88817
324 1 1 0 1 2.19662 9.23764 4.75325
325 1 1 0 1 1.04725 9.5213 7.38012
326 1 1 0 1 -1.97525 14.5471 17.1485
327 1 1 0 1 -8.68502 13.6064 20.0792
328 1 1 0 1 1.86344 18.5579 23.1075
329 1 1 0 1 -0.333161 15.1074 24.8607
330 1 1 0 1 4.34499 21.106 22.8007
331 1 1 0 1 -9.29496 13.0812 6.40014
332 1 1 0 1 -2.31242 18.4609 2.57793
333 1 1 0 1 0.901652 5.43823 5.37343
334 1 1 0 1 -6.09311 18.0436 -1.29363
335 1 1 0 1 3.22936 13.5197 10.536
336 1 1 0 1 -11.2425 17.117 -0.00368826
337 1 1 0 1 -2.9746 9.59422 2.4921
338 1 1 0 1 -5.09582 11.6473 7.14387
339 1 1 0 1 -8.24217 12.0636 8.02377
340 1 1 0 1 -4.95168 5.5378 10.4641
341 1 1 0 1 -4.93317 8.74824 8.41974
342 1 1 0 1 -2.53802 16.3604 7.46403
343 1 1 0 1 4.10717 9.23323 6.42208
344 1 1 0 1 -9.60498 9.88471 11.9873
345 1 1 0 1 -6.13744 20.6273 13.3091
346 1 1 0 1 -1.18207 17.663 21.3811
347 1 1 0 1 0.60416 23.5068 12.0743
348 1 1 0 1 -6.39924 12.8984 15.3302
349 1 1 0 1 2.07534 22.4287 15.1954
350 1 1 0 1 -2.95018 13.3293 15.1113
351 1 1 0 1 -8.94723 19.504 22.2369
352 1 1 0 1 1.49488 18.1658 28.7322
353 1 1 0 1 -9.51421 18.8731 -4.27816
354 1 1 0 1 1.00661 17.0022 0.237585
355 1 1 0 1 -1.62232 8.50782 4.89811
356 1 1 0 1 -5.21297 12.3698 5.96088
357 1 1 0 1 0.160835 17.9408 -0.313229
358 1 1 0 1 -6.5886 17.2674 5.19943
359 1 1 0 1 -7.82747 13.6637 16.9995
360 1 1 0 1 0.274315 13.0615 2.36772
361 1 1 0 1 0.921781 13.7509 10.8414
362 1 1 0 1 -0.846308 14.6352 8.5521
363 1 1 0 1 -0.762939 12.4414 10.0253
364 1 1 0 1 6.26815 7.22271 7.94006
365 1 1 0 1 -1.85984 -0.74485 4.37934
366 1 1 0 1 -3.06354 12.4941 14.4321
367 1 1 0 1 -2.42048 6.90822 13.6961
368 1 1 0 1 -3.99834 17.4684 16.7286
369 1 1 0 1 -4.41576 12.4258 9.01126
370 1 1 0 1 -1.74852 2.58848 8.1536
371 1 1 0 1 -10.6345 19.853 25.3696
372 1 1 0 1 -1.46279 19.4372 22.7239
373 1 1 0 1 -4.65894 13.8149 14.6685
374 1 1 0 1 1.34544 11.4763 26.2389
375 1 1 0 1 -10.7683 1.67941 7.18085
376 1 1 0 1 -9.41367 16.1353 0.276823
377 1 1 0 1 -12.1717 6.51161 -2.16301
378 1 1 0 1 -9.89553 15.9214 10.6513
379 1 1 0 1 -0.017903 14.3545 -7.60824
380 1 1 0 1 -3.4542 15.164 1.60607
381 1 1 0 1 -6.42627 15.562 6.64855
382 1 1 0 1 -14.0141 17.4859 15.9971
383 1 1 0 1 -2.79558 23.4673 9.09637
384 1 1 0 1 0.490846 8.86907 12.0433
385 1 1 0 1 -9.7142 19.6159 5.58465
386 1 1 0 1 -2.03023 11.2176 13.1747
387 1 1 0 1 -6.15813 10.666 18.4668
388 1 1 0 1 -4.63002 16.983 15.1143
389 1 1 0 1 -3.88891 19.6441 14.4877
390 1 1 0 1 0.85034 12.5222 20.6193
391 1 1 0 1 -4.99896 22.8231 19.2673
392 1 1 0 1 -7.15428 19.233 9.52983
393 1 1 0 1 -4.41199 9.42053 12.3911
394 1 1 0 1 -2.97199 16.1124 22.0395
395 1 1 0 1 -11.4525 16.8959 10.2506
396 1 1 0 1 -4.09568 6.60946 23.242
397 1 1 0 1 -3.95891 18.3958 -0.261443
398 1 1 0 1 -2.65866 26.058 -1.95704
399 1 1 0 1 -1.13537 13.8209 0.504652
400 1 1 0 1 -6.3448 12.5123 2.4414
401 1 1 0 1 -5.05373 8.55418 12.0967
402 1 1 0 1 -6.70151 10.8037 13.3115
403 1 1 0 1 -1.05131 12.8676 8.56835
404 1 1 0 1 -2.56684 31.5236 5.19541
405 1 1 0 1 -11.6005 14.2395 6.8436
406 1 1 0 1 -8.66926 19.356 7.14949
407 1 1 0 1 -4.33159 17.4986 7.22735
408 1 1 0 1 -9.68011 21.1682 14.4764
409 1 1 0 1 -6.742 12.5984 13.2525
410 1 1 0 1 -5.58022 1.89974 5.87838
411 1 1 0 1 7.05047 16.0067 4.79466
412 1 1 0 1 -15.2394 13.3143 4.46987
413 1 1 0 1 -14.4996 11.1232 19.5136
414 1 1 0 1 -4.11447 11.6947 22.315
415 1 1 0 1 -0.0832007 16.1967 28.1395
416 1 1 0 1 -5.30818 15.8104 28.5539
417 1 1 0 1 1.56104 21.3782 25.7615
418 1 1 0 1 -1.15171 16.297 28.5072
419 1 1 0 1 -8.25898 19.2837 1.04034
420 1 1 0 1 -4.64499 23.7236 17.8223
421 1 1 0 1 -6.35896 16.5727 7.55237
422 1 1 0 1 -3.73503 4.25368 3.15739
423 1 1 0 1 0.505637 30.7947 9.72343
424 1 1 0 1 -1.94706 15.5643 15.4483
425 1 1 0 1 -2.18201 13.0266 2.64406
426 1 1 0 1 -7.94546 17.9291 -2.65426
427 1 1 0 1 -4.06771 25.1628 1.95083
428 1 1 0 1 2.68355 13.004 1.3471
429 1 1 0 1 -4.97183 26.9421 8.33216
430 1 1 0 1 1.7894 16.5784 7.54944
431 1 1 0 1 -8.41484 14.2857 13.1349
432 1 1 0 1 -2.6722 26.4075 7.18814
433 1 1 0 1 -4.20564 20.6812 16.9643
434 1 1 0 1 -6.19062 6.58799 8.82547
435 1 1 0 1 -5.72376 15.5658 20.8389
436 1 1 0 1 -5.46988 10.7989 11.9941
437 1 1 0 1 -0.201611 23.3579 18.4206
438 1 1 0 1 -7.75928 16.2212 18.4909
439 1 1 0 1 -5.33479 22.5726 21.8752
440 1 1 0 1 -5.21394 14.2349 24.9678
441 1 1 0 1 -3.21228 17.0339 -2.52601
442 1 1 0 1 -7.95747 18.9869 6.54861
443 1 1 0 1 -3.90665 12.156 -2.96626
444 1 1 0 1 -1.59361 23.0842 3.64217
445 1 1 0 1 -3.07044 18.2705 1.33738
446 1 1 0 1 4.76378 7.74131 15.0016
447 1 1 0 1 -2.47236 11.033 7.21836
448 1 1 0 1 -2.88936 15.0728 8.56241
449 1 1 0 1 1.50915 15.4457 11.9665
450 1 1 0 1 -2.34282 11.4241 23.2335
451 1 1 0 1 -7.07779 13.7715 12.1601
452 1 1 0 1 -7.44308 22.3814 18.3802
453 1 1 0 1 -4.90152 14.6628 16.5596
454 1 1 0 1 3.7303 21.6234 11.8467
455 1 1 0 1 -2.9133 1.69537 0.380172
456 1 1 0 1 -3.84315 22.0011 16.8061
457 1 1 0 1 -8.68686 18.4007 19.9258
458 1 1 0 1 -12.7412 15.1479 15.2761
459 1 1 0 1 -9.23557 16.6742 14.9523
460 1 1 0 1 -2.89075 18.2753 22.3092
461 1 1 0 1 2.6474 17.3859 10.8339
462 1 1 0 1 12.5428 24.7499 19.3031
463 1 1 0 1 2.89682 19.4064 -0.948251
464 1 1 0 1 -2.11584 24.5557 10.2253
465 1 1 0 1 8.28106 24.8501 -0.695783
466 1 1 0 1 -3.56682 28.0865 -0.457543
467 1 1 0 1 -6.74552 22.6925 10.1039
468 1 1 0 1 -4.6501 24.552 6.31013
469 1 1 0 1 0.0959063 16.9455 14.5342
470 1 1 0 1 -0.263302 19.9356 15.1134
471 1 1 0 1 3.49468 7.20908 5.93788
472 1 1 0 1 6.08877 31.5982 14.3518
473 1 1 0 1 -5.70771 19.5473 9.54594
474 1 1 0 1 1.02828 15.3958 12.8758
475 1 1 0 1 -1.35713 16.6635 15.7929
476 1 1 0 1 4.5957 29.1306 24.8664
477 1 1 0 1 0.98811 23.5512 14.3587
478 1 1 0 1 5.85261 23.7968 17.9911
479 1 1 0 1 -6.15027 33.5156 6.49496
480 1 1 0 1 4.57286 22.0586 17.0427
481 1 1 0 1 -1.11347 20.7364 18.2726
482 1 1 0 1 -3.51746 31.9899 16.6609
483 1 1 0 1 3.64852 20.5187 23.2761
484 1 1 0 1 -4.11296 19.0992 19.6464
485 1 1 0 1 -3.62904 -7.56242 2.35183
486 1 1 0 1 -4.92131 8.23393 -8.49175
487 1 1 0 1 0.301979 2.72387 1.39883
488 1 1 0 1 -5.88045 -3.19546 4.01702
489 1 1 0 1 2.49229 2.98182 -2.51331
490 1 1 0 1 -9.57355 -1.67905 8.3137
491 1 1 0 1 -4.10354 1.44501 3.65584
492 1 1 0 1 1.15971 -15.2391 12.935
493 1 1 0 1 1.71723 1.38652 12.5526
494 1 1 0 1 -6.4942 1.79261 7.14182
495 1 1 0 1 -5.28477 -1.22946 17.3309
496 1 1 0 1 2.37823 7.52625 16.451
497 1 1 0 1 -3.0939 -6.98672 15.06
498 1 1 0 1 0.157578 8.26964 7.75493
499 1 1 0 1 2.44253 8.27063 8.08312
500 1 1 0 1 -4.65334 -7.47048 11.912
501 1 1 0 1 3.46934 1.18547 8.36904
502 1 1 0 1 -1.1447 -9.81041 20.61
503 1 1 0 1 -0.903951 5.6231 9.98854
504 1 1 0 1 0.353632 -5.35033 10.1081
505 1 1 0 1 -3.24006 -3.7203 12.3503
506 1 1 0 1 -1.99022 7.06157 12.4826
507 1 1 0 1 2.18114 0.958964 -2.37048
508 1 1 0 1 -1.99117 3.87597 2.61406
509 1 1 0 1 -3.41377 4.94236 2.27836
510 1 1 0 1 -13.8364 -9.09372 -2.75752
511 1 1 0 1 6.4058 2.73523 6.39218
512 1 1 0 1 -5.33352 18.0152 6.76051
513 1 1 0 1 -6.63202 1.43477 9.09796
514 1 1 0 1 -1.70823 -0.938189 -0.677724
515 1 1 0 1 7.45747 9.29823 -2.87284
516 1 1 0 1 -4.08503 12.3787 6.89557
517 1 1 0 1 -2.35543 -0.597929 7.06211
518 1 1 0 1 0.810007 3.20336 7.14577
519 1 1 0 1 3.3383 0.8879 19.9853
520 1 1 0 1 -0.329883 -4.62007 11.034
521 1 1 0 1 -1.43186 4.74307 11.5619
522 1 1 0 1 -3.84566 5.31374 10.7504
523 1 1 0 1 0.741809 1.85467 15.3747
524 1 1 0 1 0.0759179 2.99081 13.1094
525 1 1 0 1 -2.77767 1.95405 23.6074
526 1 1 0 1 0.0173649 -3.72137 25.3082
527 1 1 0 1 -0.493108 9.23808 18.7369
528 1 1 0 1 3.01323 2.02872 24.8432
529 1 1 0 1 8.97811 14.9722 10.8918
530 1 1 0 1 4.59096 -4.17775 -4.5015
531 1 1 0 1 5.12317 11.9847 -0.41696
532 1 1 0 1 -0.934826 -6.96553 6.71947
533 1 1 0 1 -4.41823 4.29478 -3.09294
534 1 1 0 1 -3.74049 0.323332 2.38488
535 1 1 0 1 0.994002 9.07669 -1.77611
536 1 1 0 1 -9.54871 14.751 1.25322
537 1 1 0 1 -0.639426 5.20084 8.94256
538 1 1 0 1 -1.7974 -0.352676 11.2164
539 1 1 0 1 1.84686 8.02669 6.34111
540 1 1 0 1 1.38333 6.59431 7.54017
541 1 1 0 1 -8.27221 7.49041 7.54651
542 1 1 0 1 -0.809752 7.89171 8.94182
543 1 1 0 1 -3.29864 9.96809 4.21072
544 1 1 0 1 1.65143 5.70483 6.35503
545 1 1 0 1 0.895943 10.9207 11.8199
546 1 1 0 1 -0.110338 -2.54461 13.8115
547 1 1 0 1 -1.28383 -2.68064 20.0184
548 1 1 0 1 3.29767 8.09804 26.2812
549 1 1 0 1 2.08765 2.57266 27.4516
550 1 1 0 1 -6.66451 9.35107 25.7896
551 1 1 0 1 -4.9132 3.97156 -5.29448
552 1 1 0 1 -8.04299 0.784245 -4.42066
553 1 1 0 1 -1.91372 7.00764 1.47125
554 1 1 0 1 1.63654 6.58054 0.0133485
555 1 1 0 1 -1.99119 5.68535 -8.66404
556 1 1 0 1 -1.7185 1.78704 5.12959
557 1 1 0 1 3.14718 9.5199 0.952179
558 1 1 0 1 2.17708 5.42295 7.86839
559 1 1 0 1 1.04103 -4.07756 11.8389
560 1 1 0 1 -1.39442 -5.38905 -0.688072
561 1 1 0 1 0.195856 4.94198 15.1152
562 1 1 0 1 2.63218 6.28879 25.585
563 1 1 0 1 -0.188831 2.46461 20.4806
564 1 1 0 1 -4.70962 -1.92538 10.2669
565 1 1 0 1 11.1282 7.80885 16.5072
566 1 1 0 1 4.3693 4.35038 8.23555
567 1 1 0 1 -4.18573 4.60165 15.6762
568 1 1 0 1 6.84811 6.94566 14.2813
569 1 1 0 1 3.73969 2.86129 18.5418
570 1 1 0 1 -1.28895 8.94957 30.2058
571 1 1 0 1 6.43544 8.99061 21.5788
572 1 1 0 1 1.72351 -1.38514 20.4774
573 1 1 0 1 0.0508713 2.6074 -3.40814
574 1 1 0 1 -5.97992 -0.303167 1.69749
575 1 1 0 1 -4.06692 1.12835 -7.42676
576 1 1 0 1 -1.14284 3.98725 -2.94209
577 1 1 0 1 -5.73411 -1.51994 4.76664
578 1 1 0 1 -0.605108 11.4905 9.79833
579 1 1 0 1 -6.47758 6.03766 2.44628
580 1 1 0 1 -2.57491 -0.0689276 13.0885
581 1 1 0 1 -1.25858 7.69766 9.82094
582 1 1 0 1 0.810319 8.27197 6.83513
583 1 1 0 1 -9.16878 12.5263 11.1446
584 1 1 0 1 -3.25069 8.12055 13.9318
585 1 1 0 1 -5.00021 2.05641 12.4847
586 1 1 0 1 3.1004 12.5305 17.7265
587 1 1 0 1 -5.34934 18.3816 13.4411
588 1 1 0 1 -7.85012 5.05481 17.1493
589 1 1 0 1 -4.84735 3.67172 12.7933
590 1 1 0 1 -6.72218 5.86976 15.3138
591 1 1 0 1 -9.22741 6.77886 11.4411
592 1 1 0 1 -2.76399 -1.64634 17.6118
593 1 1 0 1 -4.45457 4.82845 13.4974
594 1 1 0 1 -11.7109 -5.15647 18.7771
595 1 1 0 1 -1.08825 -1.06998 -2.45708
596 1 1 0 1 0.655155 10.9047 0.583327
597 1 1 0 1 -7.12239 1.2902 4.88176
598 1 1 0 1 2.46373 10.2339 0.55834
599 1 1 0 1 -1.42972 10.7248 0.936044
600 1 1 0 1 -1.93775 3.81535 7.62171
601 1 1 0 1 -7.15197 7.19782 1.69552
602 1 1 0 1 -6.19842 -6.61734 3.64287
603 1 1 0 1 -0.0695191 -4.34474 18.5869
604 1 1 0 1 13.6181 9.71577 17.3641
605 1 1 0 1 -6.91635 8.28256 5.86329
606 1 1 0 1 -5.90717 -1.32447 14.5258
607 1 1 0 1 -5.88922 4.98828 5.54666
608 1 1 0 1 0.263045 -3.34693 11.4169
609 1 1 0 1 3.39404 8.30547 13.4683
610 1 1 0 1 1.47632 11.525 8.68229
611 1 1 0 1 -3.71659 4.63717 5.4897
612 1 1 0 1 -1.73871 5.08964 23.4841
613 1 1 0 1 1.8667 5.02413 16.4103
614 1 1 0 1 -2.57896 10.6921 24.7429
615 1 1 0 1 -15.4641 2.63603 18.2007
616 1 1 0 1 -4.07675 10.7816 20.0055
617 1 1 0 1 -1.28258 1.14609 -3.9539
618 1 1 0 1 -11.9879 5.30034 0.98189
619 1 1 0 1 3.2729 18.5493 3.67779
620 1 1 0 1 2.94262 9.02026 5.66308
621 1 1 0 1 -1.73715 7.44002 4.24244
622 1 1 0 1 -7.38122 0.782869 -1.23381
623 1 1 0 1 1.80829 4.59451 3.4778
624 1 1 0 1 -4.4314 4.02794 0.40563
625 1 1 0 1 -2.62963 1.31148 3.8556
626 1 1 0 1 -0.756104 3.49348 5.21569
627 1 1 0 1 -9.11512 -4.62974 16.7694
628 1 1 0 1 3.54574 -1.46524 8.04493
629 1 1 0 1 2.55077 10.9708 20.6771
630 1 1 0 1 2.77979 14.128 20.5372
631 1 1 0 1 2.677 8.46379 14.2117
632 1 1 0 1 8.9696 8.15867 17.6251
633 1 1 0 1 -7.45263 10.162 17.244
634 1 1 0 1 -1.86703 1.74589 15.1823
635 1 1 0 1 1.67076 2.4125 18.0705
636 1 1 0 1 2.42117 1.58099 18.0258
637 1 1 0 1 -7.99539 3.26569 21.0899
638 1 1 0 1 -1.0431 4.24481 23.3653
639 1 1 0 1 -2.57814 -2.39736 9.64294
640 1 1 0 1 -2.92305 16.099 8.58051
641 1 1 0 1 12.8482 7.91949 -3.94745
642 1 1 0 1 1.4521 16.0932 13.87
643 1 1 0 1 -0.762414 9.51472 14.558
644 1 1 0 1 -4.45078 7.89612 0.717457
645 1 1 0 1 -2.89564 4.99772 6.05351
646 1 1 0 1 2.40821 3.58873 6.22763
647 1 1 0 1 -6.10398 11.9051 -1.51972
648 1 1 0 1 -3.81244 10.7117 13.788
649 1 1 0 1 1.76723 4.6069 1.17991
650 1 1 0 1 5.01562 6.89686 11.3854
651 1 1 0 1 1.77865 7.55019 10.941
652 1 1 0 1 -1.5332 12.7909 18.1044
653 1 1 0 1 -1.92489 17.4079 10.5915
654 1 1 0 1 -1.04651 9.71827 17.903
655 1 1 0 1 1.2035 4.78525 4.47302
656 1 1 0 1 -3.72502 3.62498 12.3616
657 1 1 0 1 3.2785 7.9186 18.5273
658 1 1 0 1 -0.422739 11.0555 21.2429
659 1 1 0 1 -9.11329 8.44939 13.0684
660 1 1 0 1 5.60825 7.10093 20.5074
661 1 1 0 1 -0.314078 5.03569 3.10289
662 1 1 0 1 -2.29497 12.0875 3.72935
663 1 1 0 1 -5.53799 7.40893 2.52184
664 1 1 0 1 -1.51131 9.84098 6.03969
665 1 1 0 1 -7.64339 0.286237 4.76695
666 1 1 0 1 9.60161 8.39848 9.37431
667 1 1 0 1 -3.90482 7.83626 -0.295626
668 1 1 0 1 -7.04014 4.12451 1.51632
669 1 1 0 1 6.67438 2.63974 1.54213
670 1 1 0 1 -3.67733 3.59414 9.56619
671 1 1 0 1 2.30345 1.32667 4.75834
672 1 1 0 1 -2.54639 19.3204 14.1624
673 1 1 0 1 -8.82315 17.9916 12.5674
674 1 1 0 1 -0.890771 11.2315 16.5624
675 1 1 0 1 -2.64904 8.58707 17.6531
676 1 1 0 1 -3.67663 -1.47691 15.0444
677 1 1 0 1 -0.668687 3.48039 15.8612
678 1 1 0 1 2.60578 8.40082 19.266
679 1 1 0 1 -11.4296 9.03645 13.9876
680 1 1 0 1 0.208509 3.73601 14.988
681 1 1 0 1 -5.69391 7.95178 19.2871
682 1 1 0 1 10.1748 6.54257 26.9015
683 1 1 0 1 -0.322006 12.0569 9.04583
684 1 1 0 1 -4.76423 7.07074 0.383922
685 1 1 0 1 2.02121 10.7571 1.46328
686 1 1 0 1 -3.3015 6.44823 3.2432
687 1 1 0 1 -1.2699 15.8543 3.97799
688 1 1 0 1 -3.24333 14.3123 10.7742
689 1 1 0 1 -2.02026 2.79578 5.11805
690 1 1 0 1 1.94715 1.20149 11.4851
691 1 1 0 1 -0.0506114 6.50719 2.57353
692 1 1 0 1 -6.59551 7.18977 9.4819
693 1 1 0 1 -2.99437 3.32842 19.3578
694 1 1 0 1 -7.59456 12.417 12.687
695 1 1 0 1 -2.08041 9.40627 15.7371
696 1 1 0 1 -7.13053 6.28056 20.4988
697 1 1 0 1 -3.24446 8.70049 18.779
698 1 1 0 1 -5.99715 9.08005 14.7095
699 1 1 0 1 4.42916 7.977 22.4834
700 1 1 0 1 3.98121 12.5024 21.5269
701 1 1 0 1 -1.28048 10.658 19.244
702 1 1 0 1 -1.04642 7.21786 22.7616
703 1 1 0 1 -4.25257 16.8907 17.9327
704 1 1 0 1 6.85186 22.0357 17.3393
705 1 1 0 1 -0.489899 6.76669 4.95128
706 1 1 0 1 -0.981189 7.09296 -6.79666
707 1 1 0 1 -0.299228 30.2078 0.113378
708 1 1 0 1 2.93824 5.17646 3.74589
709 1 1 0 1 -10.0835 13.6482 7.36316
710 1 1 0 1 -4.15042 11.4719 -1.18443
711 1 1 0 1 -5.11212 8.00808 5.01419
712 1 1 0 1 -2.10578 11.2651 16.4495
713 1 1 0 1 -0.513802 11.1565 1.90909
714 1 1 0 1 -1.29567 16.0022 1.73884
715 1 1 0 1 -3.22555 14.1022 14.3564
716 1 1 0 1 -2.53202 14.16 19.3856
717 1 1 0 1 -1.52544 12.0878 19.6408
718 1 1 0 1 0.0432375 10.5846 10.4935
719 1 1 0 1 -6.58263 9.68003 13.047
720 1 1 0 1 -2.55826 12.6166 23.4943
721 1 1 0 1 -7.46773 12.812 11.4228
722 1 1 0 1 4.63486 19.1988 26.9011
723 1 1 0 1 -4.63562 10.7799 17.0602
724 1 1 0 1 -1.45104 20.2684 23.6482
725 1 1 0 1 0.617579 12.4203 26.274
726 1 1 0 1 -9.87337 18.249 16.8165
727 1 1 0 1 6.17569 14.7746 1.85909
728 1 1 0 1 -0.455938 17.128 -5.65666
729 1 1 0 1 -3.69308 3.49418 -5.99313
730 1 1 0 1 -3.99895 15.5485 8.2257
731 1 1 0 1 1.51161 19.0845 4.80207
732 1 1 0 1 5.82464 13.1337 6.88872
733 1 1 0 1 -4.15041 10.6907 6.06208
734 1 1 0 1 3.35755 4.91304 2.86901
735 1 1 0 1 -11.0137 15.5951 2.89439
736 1 1 0 1 -9.67911 18.2681 -2.03709
737 1 1 0 1 -3.01774 10.9269 16.8766
738 1 1 0 1 7.90388 14.1022 6.57955
739 1 1 0 1 -6.99605 4.89325 17.9629
740 1 1 0 1 -1.73058 6.98862 17.6028
741 1 1 0 1 -1.67616 8.60148 18.1439
742 1 1 0 1 3.30664 7.06305 23.6082
743 1 1 0 1 -5.76854 7.76766 18.0181
744 1 1 0 1 4.88049 15.7288 27.0164
745 1 1 0 1 -0.552948 10.4936 18.2997
746 1 1 0 1 -2.89478 13.0887 20.6112
747 1 1 0 1 4.09465 9.50961 26.2746
748 1 1 0 1 2.93685 11.9593 32.3739
749 1 1 0 1 2.50735 8.44106 1.81788
750 1 1 0 1 -0.887155 9.98667 12.082
751 1 1 0 1 -14.8298 13.6981 10.2231
752 1 1 0 1 -4.92899 16.5978 11.6473
753 1 1 0 1 -1.95302 11.4261 14.3864
754 1 1 0 1 5.14516 9.70317 5.41372
755 1 1 0 1 -0.274457 19.8852 0.666413
756 1 1 0 1 -7.68559 24.0508 1.38534
757 1 1 0 1 -5.75895 10.433 13.1914
758 1 1 0 1 -3.58492 19.9139 9.69591
759 1 1 0 1 -1.18536 13.6886 6.68272
760 1 1 0 1 0.568323 1.60542 16.3823
761 1 1 0 1 -5.77093 14.348 17.3256
762 1 1 0 1 -7.41509 13.5505 7.19181
763 1 1 0 1 7.35936 19.2542 10.1722
764 1 1 0 1 -1.89625 20.3637 13.3449
765 1 1 0 1 1.50115 13.3001 17.552
766 1 1 0 1 -6.72366 16.7354 14.2151
767 1 1 0 1 -14.6192 14.7338 19.1645
768 1 1 0 1 -7.69465 16.3156 23.3004
769 1 1 0 1 7.88731 10.8261 20.6201
770 1 1 0 1 1.58973 17.5318 23.2472
771 1 1 0 1 -2.54481 12.7442 6.30232
772 1 1 0 1 -0.883068 14.2724 13.3341
773 1 1 0 1 -3.71291 10.0457 1.11395
774 1 1 0 1 -5.60145 5.70521 11.8164
775 1 1 0 1 -5.97564 15.5111 -6.2431
776 1 1 0 1 0.307566 9.59918 10.663
777 1 1 0 1 -1.14002 13.2559 13.3521
778 1 1 0 1 -1.68792 15.4486 12.0505
779 1 1 0 1 0.385311 14.5809 24.0265
780 1 1 0 1 -5.53974 17.0926 8.69076
781 1 1 0 1 1.48419 22.2 17.4592
782 1 1 0 1 4.02534 20.4273 15.1932
783 1 1 0 1 -2.78114 14.8601 3.48654
784 1 1 0 1 -4.98158 18.1356 21.2694
785 1 1 0 1 -6.51846 27.6254 16.5833
786 1 1 0 1 -4.53523 9.0581 19.1118
787 1 1 0 1 4.00282 9.90549 23.995
788 1 1 0 1 -10.7176 21.1056 14.8108
789 1 1 0 1 -2.89913 15.6777 20.8342
790 1 1 0 1 -6.09123 14.2125 23.2326
791 1 1 0 1 -11.6625 15.7199 16.8746
792 1 1 0 1 -4.67669 8.93406 22.2481
793 1 1 0 1 -8.5535 22.024 6.39897
794 1 1 0 1 -2.87643 15.8414 6.51424
795 1 1 0 1 5.59277 23.1924 -5.85464
796 1 1 0 1 0.644846 14.6719 9.65376
797 1 1 0 1 -3.70499 22.9651 0.931524
798 1 1 0 1 3.00734 11.832 -0.0508639
799 1 1 0 1 -2.65275 14.6756 4.65833
800 1 1 0 1 3.85421 11.071 1.88636
801 1 1 0 1 9.56005 12.3437 7.70912
802 1 1 0 1 -4.31918 22.9729 8.54966
803 1 1 0 1 1.56289 8.2066 18.6164
804 1 1 0 1 -2.44527 16.2167 10.3656
805 1 1 0 1 -11.1846 14.2933 18.6369
806 1 1 0 1 -3.05832 0.98244 1.83696
807 1 1 0 1 3.08371 19.6567 16.412
808 1 1 0 1 -2.66653 16.7325 13.8904
809 1 1 0 1 -3.00373 16.1606 11.5478
810 1 1 0 1 -0.0256836 16.8979 20.1117