ITEM: TIMESTEP
7000
ITEM: NUMBER OF ATOMS
6752
ITEM: BOX BOUNDS pp pp pp
0.0000000000000000e+00 2.2000000000000000e+01
0.0000000000000000e+00 2.2000000000000000e+01
0.0000000000000000e+00 2.2000000000000000e+01
ITEM: ATOMS id mol type q mass xu yu zu
1 1 1 0 1 -3.90661 -4.59906 -3.28346
2 1 1 0 1 -4.24712 0.834286 -0.456463
3 1 1 0 1 -2.17132 3.27208 3.17418
4 1 1 0 1 -3.90113 -3.16322 6.83804
5 1 1 0 1 -0.0291032 3.14361 2.73247
6 1 1 0 1 -3.47813 2.97245 8.87732
7 1 1 0 1 -5.08063 7.3164 5.91452
8 1 1 0 1 -1.57992 -3.11986 9.35576
9 1 1 0 1 -0.228014 2.02778 7.45655
10 1 1 0 1 -6.50763 3.52431 6.30106
11 1 1 0 1 -3.86214 2.27261 5.19125
12 1 1 0 1 -3.1102 -2.24747 12.4122
13 1 1 0 1 -1.53804 1.71353 13.1802
14 1 1 0 1 -2.29624 7.92614 14.3124
15 1 1 0 1 -7.32547 4.68602 15.3654
16 1 1 0 1 -6.7628 -3.77243 14.6925
17 1 1 0 1 0.117923 2.95288 14.4625
18 1 1 0 1 -1.5454 4.00144 18.2846
19 1 1 0 1 -2.42602 3.51746 21.5871
20 1 1 0 1 -2.8347 -2.54689 17.9464
21 1 1 0 1 -4.55439 5.10715 19.2769
22 1 1 0 1 -6.65568 7.81813 17.2951
23 1 1 0 1 -3.58613 5.15205 3.7172
24 1 1 0 1 -5.99701 2.84038 1.17862
25 1 1 0 1 -5.27258 -1.77532 -3.14055
26 1 1 0 1 0.228996 -0.508688 3.90894
27 1 1 0 1 -3.51497 1.22 6.89731
28 1 1 0 1 -3.70631 1.6313 3.86443
29 1 1 0 1 -4.10848 1.09283 11.3272
30 1 1 0 1 -0.555513 -1.06084 7.15805
31 1 1 0 1 -3.66842 7.57808 13.2849
32 1 1 0 1 -7.14634 -3.25845 7.19008
33 1 1 0 1 -4.41758 2.13788 12.4445
34 1 1 0 1 -3.05008 5.40713 10.8397
35 1 1 0 1 -4.68835 0.669553 13.5018
36 1 1 0 1 -1.36718 1.38826 6.21245
37 1 1 0 1 -7.25635 2.18585 13.0217
38 1 1 0 1 -2.17463 -0.00129386 17.1238
39 1 1 0 1 -0.836946 1.22759 13.7598
40 1 1 0 1 -3.82219 5.11788 22.2584
41 1 1 0 1 -5.47496 0.951547 15.5013
42 1 1 0 1 -7.24175 3.45436 24.302
43 1 1 0 1 -2.41114 6.40504 22.5454
44 1 1 0 1 -3.86952 7.37839 19.2113
45 1 1 0 1 -7.58459 6.57735 6.51983
46 1 1 0 1 -10.0881 8.1139 9.9451
47 1 1 0 1 -4.51712 1.68927 -0.940752
48 1 1 0 1 -7.865 3.74236 4.69072
49 1 1 0 1 -0.63048 7.4055 3.31718
50 1 1 0 1 -5.34697 6.51677 0.655274
51 1 1 0 1 -2.87601 5.17263 6.42578
52 1 1 0 1 -1.55656 5.48282 14.7515
53 1 1 0 1 -2.07234 1.49908 4.98328
54 1 1 0 1 -3.31271 1.02887 11.9903
55 1 1 0 1 -5.47098 3.42234 10.712
56 1 1 0 1 -2.6536 -0.142496 12.7292
57 1 1 0 1 -5.91951 9.87172 11.5064
58 1 1 0 1 -1.50971 7.25933 15.698
59 1 1 0 1 -2.16201 1.49 17.9162
60 1 1 0 1 0.939793 1.32201 18.5042
61 1 1 0 1 -4.25787 4.50513 15.8098
62 1 1 0 1 -0.385409 0.649057 17.8371
63 1 1 0 1 -3.48127 13.8912 10.3349
64 1 1 0 1 -5.02724 3.97982 17.863
65 1 1 0 1 -7.48883 4.28505 20.9981
66 1 1 0 1 -6.57137 3.27288 25.3493
67 1 1 0 1 -7.83581 2.36025 2.86103
68 1 1 0 1 -4.2344 4.68127 -4.94821
69 1 1 0 1 -0.589992 5.72239 -0.246002
70 1 1 0 1 -2.87703 4.95178 5.02259
71 1 1 0 1 -0.864475 4.17279 4.49412
72 1 1 0 1 -9.42624 6.04481 4.1085
73 1 1 0 1 2.31504 3.41259 7.59083
74 1 1 0 1 -7.19125 2.454 5.79843
75 1 1 0 1 -5.59388 3.92568 6.8246
76 1 1 0 1 -4.20923 3.59315 6.40386
77 1 1 0 1 -1.48769 -2.16093 11.714
78 1 1 0 1 -3.30177 4.56385 15.2923
79 1 1 0 1 -2.60276 0.717611 9.00281
80 1 1 0 1 1.14489 3.42529 12.2494
81 1 1 0 1 -1.75265 6.54433 14.7479
82 1 1 0 1 -0.777547 3.48333 15.8789
83 1 1 0 1 -3.48226 5.56359 17.4014
84 1 1 0 1 -3.15565 1.35795 14.4945
85 1 1 0 1 -1.62669 4.58307 23.3663
86 1 1 0 1 -3.45892 4.49512 19.9464
87 1 1 0 1 -7.11422 0.923919 24.7885
88 1 1 0 1 -3.03594 7.52619 22.5452
89 1 1 0 1 -2.28195 7.36355 -0.317162
90 1 1 0 1 -1.3426 7.89625 6.93819
91 1 1 0 1 -3.0249 2.78352 3.26934
92 1 1 0 1 -5.06212 9.01889 7.12133
93 1 1 0 1 -7.56894 7.30579 8.22656
94 1 1 0 1 -3.45514 0.377515 5.69453
95 1 1 0 1 -4.47163 7.11241 7.80178
96 1 1 0 1 -1.14838 5.46775 12.3556
97 1 1 0 1 -2.72033 7.41839 9.8512
98 1 1 0 1 -0.380516 5.15597 4.30186
99 1 1 0 1 -5.1687 8.96809 12.1663
100 1 1 0 1 -1.14162 2.298 8.06841
101 1 1 0 1 -5.33487 2.5653 13.0643
102 1 1 0 1 -4.94835 4.82606 14.8351
103 1 1 0 1 -7.60145 11.4272 11.6857
104 1 1 0 1 -2.94929 7.51571 16.1904
105 1 1 0 1 -2.6393 9.69578 11.5347
106 1 1 0 1 -1.10055 1.81817 18.8865
107 1 1 0 1 -6.15688 8.08868 18.0948
108 1 1 0 1 -2.42513 6.18737 21.1794
109 1 1 0 1 -4.13467 8.12695 17.0542
110 1 1 0 1 -4.16046 6.88042 22.8833
111 1 1 0 1 -5.41543 1.47632 2.31126
112 1 1 0 1 -0.526453 5.39628 0.809241
113 1 1 0 1 -0.989859 12.6663 6.87552
114 1 1 0 1 -4.7785 3.58821 2.87146
115 1 1 0 1 -2.58054 8.32327 2.82826
116 1 1 0 1 -4.13355 9.86042 2.25843
117 1 1 0 1 0.410889 8.45269 9.39167
118 1 1 0 1 -2.86952 4.01578 9.29441
119 1 1 0 1 -1.99897 1.32631 8.44826
120 1 1 0 1 -1.75284 1.92136 10.1132
121 1 1 0 1 -2.08439 4.41619 10.7722
122 1 1 0 1 -5.05873 6.58242 10.1901
123 1 1 0 1 -3.4329 6.45127 14.7005
124 1 1 0 1 -3.62893 10.9529 14.5077
125 1 1 0 1 -7.57974 9.95134 10.5302
126 1 1 0 1 -5.71448 6.31144 15.8593
127 1 1 0 1 -2.32858 6.27365 15.8781
128 1 1 0 1 -5.7478 12.8564 15.6811
129 1 1 0 1 -0.846733 5.10737 18.4852
130 1 1 0 1 -4.28206 3.72238 19.5904
131 1 1 0 1 -4.33892 2.95149 17.4274
132 1 1 0 1 -6.4759 4.68427 23.7266
133 1 1 0 1 -4.95313 5.35995 0.240079
134 1 1 0 1 -8.17921 4.86743 5.43628
135 1 1 0 1 -5.63942 5.46667 4.36427
136 1 1 0 1 -3.57918 10.7109 1.90711
137 1 1 0 1 -6.96488 9.06078 5.02158
138 1 1 0 1 -7.15173 9.04864 6.32804
139 1 1 0 1 -1.63013 8.8197 6.32804
140 1 1 0 1 -3.65532 6.97115 1.76433
141 1 1 0 1 6.40378 3.74823 4.41819
142 1 1 0 1 -3.66323 3.31364 11.8687
143 1 1 0 1 -1.87101 4.53655 11.8325
144 1 1 0 1 -0.616178 4.40337 8.05786
145 1 1 0 1 -2.01167 8.42606 15.1879
146 1 1 0 1 -3.52799 10.2772 18.5149
147 1 1 0 1 -4.56554 10.3266 14.6812
148 1 1 0 1 -5.02939 10.6783 13.6143
149 1 1 0 1 -3.24862 11.7184 18.0344
150 1 1 0 1 -6.078 8.73138 17.3184
151 1 1 0 1 -2.79788 5.47656 21.8716
152 1 1 0 1 -5.02349 5.99213 19.5015
153 1 1 0 1 -2.28042 7.27099 18.0171
154 1 1 0 1 -3.38603 6.78467 25.9433
155 1 1 0 1 -2.78418 6.21993 -3.05315
156 1 1 0 1 -3.18858 3.43888 2.36405
157 1 1 0 1 -1.00922 4.78125 3.44716
158 1 1 0 1 0.0394389 8.17364 3.67495
159 1 1 0 1 -3.28444 9.61865 1.05974
160 1 1 0 1 -6.73509 4.07718 4.09839
161 1 1 0 1 -0.649735 9.37839 4.8558
162 1 1 0 1 -4.03609 7.27331 3.15927
163 1 1 0 1 1.18736 7.34879 9.14572
164 1 1 0 1 -4.10197 7.25383 9.64801
165 1 1 0 1 -2.72422 11.2115 7.94823
166 1 1 0 1 -0.134323 10.2832 14.686
167 1 1 0 1 -3.50654 10.1096 13.327
168 1 1 0 1 -0.899536 10.4316 18.4496
169 1 1 0 1 -6.38895 9.65675 17.6282
170 1 1 0 1 -0.339319 7.93692 19.8873
171 1 1 0 1 -0.836385 9.14864 16.7781
172 1 1 0 1 -2.67807 7.08139 20.5802
173 1 1 0 1 -3.02623 6.53186 16.7425
174 1 1 0 1 -2.81318 1.01043 23.2566
175 1 1 0 1 -3.41397 7.31458 21.3833
176 1 1 0 1 -1.50786 8.76579 21.2605
177 1 1 0 1 -3.13509 2.93527 1.49924
178 1 1 0 1 0.542021 14.6073 4.44807
179 1 1 0 1 -6.22835 13.4504 2.37464
180 1 1 0 1 -3.45032 6.19762 2.88599
181 1 1 0 1 -3.13151 8.4786 4.73455
182 1 1 0 1 -3.88834 13.4304 5.56016
183 1 1 0 1 -2.17627 8.22575 5.68143
184 1 1 0 1 -1.7289 9.76614 7.93653
185 1 1 0 1 -3.29892 5.21499 8.98775
186 1 1 0 1 -8.81937 12.5063 8.92013
187 1 1 0 1 -6.68623 11.0306 9.59508
188 1 1 0 1 -1.32603 1.93673 9.16308
189 1 1 0 1 -0.34944 11.9984 13.0378
190 1 1 0 1 -1.52726 8.17729 17.4835
191 1 1 0 1 -1.57705 11.7275 17.3017
192 1 1 0 1 -1.39737 11.1899 19.1026
193 1 1 0 1 -4.10513 6.66284 16.9142
194 1 1 0 1 -2.52375 10.6663 21.0754
195 1 1 0 1 -3.13719 9.08089 18.6372
196 1 1 0 1 -2.79336 3.63995 20.5868
197 1 1 0 1 -2.0738 7.02923 19.2619
198 1 1 0 1 1.3083 7.89172 20.6479
199 1 1 0 1 0.214645 8.05893 1.86974
200 1 1 0 1 -0.90397 8.74734 2.93507
201 1 1 0 1 -3.75351 8.45975 2.34396
202 1 1 0 1 -4.71457 7.93998 2.23278
203 1 1 0 1 -5.4025 11.0719 3.41913
204 1 1 0 1 -5.17015 10.7162 5.83101
205 1 1 0 1 -2.96055 10.1184 6.42174
206 1 1 0 1 3.43878 7.40496 7.67245
207 1 1 0 1 -4.64572 4.73713 4.35207
208 1 1 0 1 -4.89086 8.40659 13.2327
209 1 1 0 1 -4.09599 5.93114 8.44872
210 1 1 0 1 -0.92115 10.8723 14.1439
211 1 1 0 1 -0.744224 7.20489 10.5431
212 1 1 0 1 -3.44943 9.71969 12.2731
213 1 1 0 1 1.34547 14.937 17.1312
214 1 1 0 1 -5.50015 14.1213 18.5262
215 1 1 0 1 -4.65962 11.6833 16.97
216 1 1 0 1 -4.32937 9.48546 21.4437
217 1 1 0 1 -6.14904 11.4853 26.2726
218 1 1 0 1 -3.51545 8.47143 21.3794
219 1 1 0 1 -0.257187 9.81136 20.7453
220 1 1 0 1 -0.659452 10.7839 20.3268
221 1 1 0 1 0.332177 11.9674 -3.64589
222 1 1 0 1 -2.72778 11.2489 3.43228
223 1 1 0 1 -5.58067 11.9502 5.23332
224 1 1 0 1 -2.37201 11.8407 5.06678
225 1 1 0 1 -5.91677 14.919 5.55128
226 1 1 0 1 -10.1758 13.6431 7.06902
227 1 1 0 1 -10.5996 10.876 4.56703
228 1 1 0 1 -3.41978 12.4828 5.19614
229 1 1 0 1 -2.17668 8.33728 10.1913
230 1 1 0 1 -5.37059 9.78845 7.90755
231 1 1 0 1 -3.35237 9.11902 13.5416
232 1 1 0 1 -1.26816 4.89474 10.3411
233 1 1 0 1 -2.19744 11.5919 13.2256
234 1 1 0 1 -7.52135 11.0631 15.322
235 1 1 0 1 0.176725 11.9763 16.2638
236 1 1 0 1 -8.10917 12.1865 15.7352
237 1 1 0 1 -4.05502 15.318 18.5048
238 1 1 0 1 -3.87874 13.1598 12.4493
239 1 1 0 1 -3.27873 13.247 17.9403
240 1 1 0 1 -3.11677 11.2644 17.0479
241 1 1 0 1 -4.05851 10.7428 20.1943
242 1 1 0 1 -1.47944 7.40177 22.4293
243 1 1 0 1 -2.11781 8.56049 0.51709
244 1 1 0 1 -3.17271 11.9648 0.359627
245 1 1 0 1 -6.86816 14.8575 3.12927
246 1 1 0 1 -4.08206 12.4702 3.00966
247 1 1 0 1 -5.71336 11.6739 6.36398
248 1 1 0 1 -1.88379 6.02953 7.7032
249 1 1 0 1 -4.84411 9.48301 4.19743
250 1 1 0 1 -0.155809 7.48347 7.64276
251 1 1 0 1 -5.10428 9.15405 9.13859
252 1 1 0 1 0.632621 5.00752 9.78978
253 1 1 0 1 -1.22823 3.61279 11.6787
254 1 1 0 1 0.858545 11.0506 12.2169
255 1 1 0 1 -4.79838 9.22162 10.6769
256 1 1 0 1 -8.79258 15.0143 14.5138
257 1 1 0 1 -1.47872 14.556 17.9409
258 1 1 0 1 -1.15582 12.0131 12.2747
259 1 1 0 1 0.901378 14.0016 16.5679
260 1 1 0 1 -1.21432 11.7164 13.5627
261 1 1 0 1 -6.21876 9.49813 18.7079
262 1 1 0 1 -3.67543 13.6318 22.0228
263 1 1 0 1 -1.54216 10.8471 17.7889
264 1 1 0 1 0.661806 16.7272 20.9639
265 1 1 0 1 0.584456 13.3504 2.1826
266 1 1 0 1 2.97644 15.7979 2.72433
267 1 1 0 1 -5.12365 13.0489 2.09298
268 1 1 0 1 -6.07443 12.8422 1.16155
269 1 1 0 1 -1.80182 7.07459 8.84053
270 1 1 0 1 -3.39793 12.0048 1.36864
271 1 1 0 1 -6.32684 10.6429 7.45061
272 1 1 0 1 -6.03338 14.6915 8.57731
273 1 1 0 1 -5.10018 13.3321 7.59896
274 1 1 0 1 -4.74358 7.39366 10.7401
275 1 1 0 1 -6.95912 6.50891 9.85435
276 1 1 0 1 -3.7241 10.1837 11.1547
277 1 1 0 1 -3.25987 13.68 6.99275
278 1 1 0 1 -0.563228 15.3182 10.6548
279 1 1 0 1 -3.20304 13.8743 11.4992
280 1 1 0 1 -4.78772 14.9926 6.56591
281 1 1 0 1 -0.812918 13.7991 17.9153
282 1 1 0 1 -3.45275 13.3926 9.27206
283 1 1 0 1 1.79651 17.7092 16.7828
284 1 1 0 1 -2.55269 12.4214 18.5261
285 1 1 0 1 -3.6988 8.4731 19.6981
286 1 1 0 1 -6.29227 13.4366 21.3764
287 1 1 0 1 -2.77706 15.3829 1.49366
288 1 1 0 1 -3.12709 12.5761 2.57307
289 1 1 0 1 -7.04809 5.72561 6.24308
290 1 1 0 1 -4.21974 9.3715 3.33998
291 1 1 0 1 -7.42847 7.67854 13.9748
292 1 1 0 1 -6.17722 15.7283 7.83571
293 1 1 0 1 -1.31713 12.0419 5.48635
294 1 1 0 1 -4.37946 11.7328 7.86371
295 1 1 0 1 -2.22825 11.9575 8.4049
296 1 1 0 1 -4.67591 11.7199 13.657
297 1 1 0 1 -3.25325 15.9061 10.3798
298 1 1 0 1 -4.85812 12.5868 14.6252
299 1 1 0 1 -0.768582 17.141 14.5869
300 1 1 0 1 1.53047 13.4423 18.5807
301 1 1 0 1 -7.10117 16.6899 13.0831
302 1 1 0 1 -1.92369 14.7087 12.8837
303 1 1 0 1 -3.45101 13.7508 14.577
304 1 1 0 1 -3.31982 11.8559 9.43037
305 1 1 0 1 -0.775917 11.7867 15.7555
306 1 1 0 1 -0.326232 18.57 20.2908
307 1 1 0 1 -2.15456 13.1355 16.3981
308 1 1 0 1 -0.0716368 17.2606 28.1669
309 1 1 0 1 -4.09927 11.7974 2.20223
310 1 1 0 1 -5.09509 11.7201 4.21328
311 1 1 0 1 -6.51551 15.6752 1.76419
312 1 1 0 1 -9.5769 10.6999 6.12898
313 1 1 0 1 -5.66396 15.5428 4.35582
314 1 1 0 1 -2.30807 9.79364 4.5918
315 1 1 0 1 -1.5942 11.1636 7.71143
316 1 1 0 1 -3.66403 14.1975 3.13245
317 1 1 0 1 -4.40353 13.8186 6.79201
318 1 1 0 1 -2.28054 15.0339 9.58971
319 1 1 0 1 -4.46967 13.8261 8.9073
320 1 1 0 1 1.66747 19.6976 15.1144
321 1 1 0 1 -1.0652 13.0239 14.8931
322 1 1 0 1 0.100969 7.34801 12.6348
323 1 1 0 1 -3.37168 11.4344 6.12826
324 1 1 0 1 -5.32612 11.9165 8.8271
325 1 1 0 1 -4.57789 15.9779 12.5637
326 1 1 0 1 -7.76111 17.2649 20.1129
327 1 1 0 1 -1.68084 15.7018 19.3547
328 1 1 0 1 -3.24142 15.0167 19.1917
329 1 1 0 1 -0.702368 12.9187 19.2273
330 1 1 0 1 -2.85111 13.9829 24.1136
331 1 1 0 1 -1.33698 18.6825 1.26289
332 1 1 0 1 1.32381 16.6625 3.04639
333 1 1 0 1 0.0954943 15.0225 1.61397
334 1 1 0 1 -4.8746 16.3486 3.74048
335 1 1 0 1 -2.85798 14.8025 7.33968
336 1 1 0 1 -8.5551 13.0434 5.79707
337 1 1 0 1 -2.64006 9.724 8.80668
338 1 1 0 1 -4.02762 14.3456 7.94952
339 1 1 0 1 -6.9105 14.0809 8.47106
340 1 1 0 1 0.354221 14.9244 8.00908
341 1 1 0 1 -4.69034 11.106 9.12531
342 1 1 0 1 -4.22462 16.2159 14.474
343 1 1 0 1 -5.92549 12.2925 8.17437
344 1 1 0 1 -5.76092 14.5927 12.8823
345 1 1 0 1 -5.70996 13.9335 17.2447
346 1 1 0 1 4.93116 17.3935 16.8795
347 1 1 0 1 -2.19023 15.2089 17.9494
348 1 1 0 1 -2.68026 14.2396 13.9871
349 1 1 0 1 -0.437198 18.0073 15.6919
350 1 1 0 1 0.0682944 13.4109 18.349
351 1 1 0 1 -8.04342 15.2145 15.686
352 1 1 0 1 -1.47308 17.6509 22.6954
353 1 1 0 1 -4.3099 14.9807 4.59708
354 1 1 0 1 1.39404 17.5076 4.12876
355 1 1 0 1 -3.32992 13.1948 8.03141
356 1 1 0 1 -7.63413 11.4563 5.42609
357 1 1 0 1 0.0451521 17.273 2.87234
358 1 1 0 1 -3.57764 13.2203 3.52931
359 1 1 0 1 -4.41963 16.1744 4.81683
360 1 1 0 1 -0.0296636 15.1064 9.10325
361 1 1 0 1 -6.18931 15.2668 10.5282
362 1 1 0 1 -0.567277 13.5191 11.2797
363 1 1 0 1 -2.0675 15.7666 10.4326
364 1 1 0 1 -0.266979 16.8623 12.1158
365 1 1 0 1 -4.74021 7.72915 4.43082
366 1 1 0 1 -4.87591 15.1059 13.1038
367 1 1 0 1 -1.69018 13.5114 10.6553
368 1 1 0 1 -2.07739 14.7245 16.1765
369 1 1 0 1 -7.31587 13.836 13.737
370 1 1 0 1 -2.45082 6.10487 10.0821
371 1 1 0 1 -1.96371 18.0666 21.404
372 1 1 0 1 -2.90562 14.0574 15.7923
373 1 1 0 1 -5.56431 14.7685 21.911
374 1 1 0 1 -2.50344 13.2363 25.6552
375 1 1 0 1 -6.65738 8.93629 1.83199
376 1 1 0 1 -5.07061 8.52216 5.92253
377 1 1 0 1 -5.60153 16.871 4.45865
378 1 1 0 1 -3.62445 16.9613 2.97357
379 1 1 0 1 -5.18238 15.2204 0.766899
380 1 1 0 1 -5.95942 14.7181 3.68252
381 1 1 0 1 -3.39814 16.2521 5.46953
382 1 1 0 1 -9.31178 17.8277 11.5766
383 1 1 0 1 -1.8158 17.7824 10.5176
384 1 1 0 1 -1.58387 16.206 11.7103
385 1 1 0 1 -2.2331 17.3858 13.2748
386 1 1 0 1 -2.06162 11.9874 11.0096
387 1 1 0 1 -5.88711 15.1202 14.3668
388 1 1 0 1 -3.39567 16.4852 16.672
389 1 1 0 1 -3.77575 15.1732 13.3886
390 1 1 0 1 -0.971048 15.8006 16.4187
391 1 1 0 1 -4.49988 15.1221 16.1984
392 1 1 0 1 -4.29908 14.3071 11.0938
393 1 1 0 1 -1.96656 9.52176 15.9931
394 1 1 0 1 -7.52487 17.3715 21.3158
395 1 1 0 1 -7.11351 12.7714 13.2021
396 1 1 0 1 -3.51775 15.0267 22.2181
397 1 1 0 1 0.0173095 17.2104 -0.204002
398 1 1 0 1 -2.59113 20.8493 -1.02304
399 1 1 0 1 -4.52694 13.8708 1.91918
400 1 1 0 1 -4.01793 11.194 3.82138
401 1 1 0 1 -0.123633 12.3239 5.85287
402 1 1 0 1 -3.23762 16.5059 6.39602
403 1 1 0 1 -0.881816 14.4822 8.0786
404 1 1 0 1 -5.17724 16.9914 5.55513
405 1 1 0 1 -7.00904 15.6818 7.2887
406 1 1 0 1 -3.83925 17.103 8.91696
407 1 1 0 1 -5.31186 16.5715 8.29645
408 1 1 0 1 -7.64973 16.0254 9.0645
409 1 1 0 1 -5.19111 14.3499 13.9678
410 1 1 0 1 -6.5733 14.3184 14.9408
411 1 1 0 1 -0.309314 18.1322 13.5862
412 1 1 0 1 -9.61886 16.4615 11.0536
413 1 1 0 1 -3.2925 17.7539 21.0699
414 1 1 0 1 -2.96792 13.6574 17.0677
415 1 1 0 1 -1.80593 16.1292 18.3032
416 1 1 0 1 -3.03843 11.7269 21.3431
417 1 1 0 1 3.00549 21.2619 22.4928
418 1 1 0 1 -2.22196 14.2524 23.312
419 1 1 0 1 -4.21494 20.3858 5.86621
420 1 1 0 1 -0.995734 24.2417 6.74613
421 1 1 0 1 -4.27265 17.3815 4.42046
422 1 1 0 1 -5.2236 12.6727 3.94248
423 1 1 0 1 -0.170775 20.2203 4.08368
424 1 1 0 1 -2.74343 19.5763 7.07416
425 1 1 0 1 -4.0556 17.0495 5.76702
426 1 1 0 1 -1.06361 20.1175 6.30073
427 1 1 0 1 -1.20937 19.6293 7.36496
428 1 1 0 1 1.99412 20.8838 7.84556
429 1 1 0 1 -1.81149 24.7499 10.9444
430 1 1 0 1 1.40564 16.6329 12.2892
431 1 1 0 1 -6.54064 14.6578 13.7024
432 1 1 0 1 -1.86031 19.4193 16.3474
433 1 1 0 1 -2.36893 15.3977 13.675
434 1 1 0 1 -3.63894 17.1104 14.1298
435 1 1 0 1 -3.12258 14.7751 17.9065
436 1 1 0 1 -5.66405 18.2369 15.2733
437 1 1 0 1 0.197128 18.7306 15.3097
438 1 1 0 1 -3.07388 17.4697 16.5556
439 1 1 0 1 -4.60354 18.5459 18.669
440 1 1 0 1 -2.78598 16.77 23.8383
441 1 1 0 1 -5.45884 16.2552 1.35005
442 1 1 0 1 -2.07524 19.1453 5.31169
443 1 1 0 1 -5.32631 20.0776 1.52609
444 1 1 0 1 -1.46674 24.8371 1.25546
445 1 1 0 1 -4.86169 18.6379 4.14
446 1 1 0 1 -1.76481 10.338 11.4829
447 1 1 0 1 -5.3217 19.3183 7.9329
448 1 1 0 1 -6.88016 12.8827 8.28633
449 1 1 0 1 -3.95434 18.171 11.5391
450 1 1 0 1 -1.06813 17.1748 13.0875
451 1 1 0 1 -6.0062 17.3929 7.94599
452 1 1 0 1 -4.06078 17.0743 15.9612
453 1 1 0 1 -4.40977 16.6949 13.4582
454 1 1 0 1 -1.92821 22.3924 15.2623
455 1 1 0 1 -7.82452 9.19969 11.7358
456 1 1 0 1 -7.01348 13.5842 11.4399
457 1 1 0 1 -4.96431 20.9285 15.1646
458 1 1 0 1 -8.19171 19.1029 17.3201
459 1 1 0 1 -2.68112 16.8174 17.6148
460 1 1 0 1 -2.70786 13.5466 20.0922
461 1 1 0 1 -4.42041 19.7765 12.7884
462 1 1 0 1 -1.1342 20.8869 18.887
463 1 1 0 1 -1.20548 23.2375 -6.76457
464 1 1 0 1 -0.878265 19.8698 0.410172
465 1 1 0 1 1.65516 24.9045 5.42269
466 1 1 0 1 -0.169029 22.4961 4.94392
467 1 1 0 1 -6.70623 16.7819 7.13991
468 1 1 0 1 -3.06098 21.0372 5.82225
469 1 1 0 1 -6.02881 17.7197 9.72909
470 1 1 0 1 -4.02842 21.1703 5.09357
471 1 1 0 1 -5.02123 18.4483 7.45964
472 1 1 0 1 -1.31251 25.8985 5.40301
473 1 1 0 1 -5.43636 18.7167 12.9334
474 1 1 0 1 -4.31287 16.9331 12.2948
475 1 1 0 1 -1.66522 20.9097 14.106
476 1 1 0 1 -1.24936 20.6549 15.9415
477 1 1 0 1 -2.8571 22.214 16.1983
478 1 1 0 1 -2.4921 17.841 14.3133
479 1 1 0 1 -0.391826 23.8629 14.5374
480 1 1 0 1 -2.29562 23.1836 16.3447
481 1 1 0 1 -0.740494 20.344 18.0918
482 1 1 0 1 -2.4274 25.5976 16.2756
483 1 1 0 1 0.50145 20.5833 19.5726
484 1 1 0 1 -0.868499 21.5892 24.2587
485 1 1 0 1 -5.14842 -1.76851 2.65696
486 1 1 0 1 -3.57547 2.33021 -2.33135
487 1 1 0 1 -1.9861 1.23273 1.77674
488 1 1 0 1 -1.0264 0.720417 1.44741
489 1 1 0 1 -2.29371 5.06413 8.53165
490 1 1 0 1 -2.23505 0.442488 4.47449
491 1 1 0 1 -1.54788 3.74714 10.3073
492 1 1 0 1 -3.14602 -2.25723 9.41621
493 1 1 0 1 -1.97546 -0.470094 10.2176
494 1 1 0 1 -4.18793 -2.17227 3.42557
495 1 1 0 1 -4.15801 -0.220028 13.1247
496 1 1 0 1 1.13059 0.267273 13.2851
497 1 1 0 1 -1.118 0.450062 10.4575
498 1 1 0 1 -3.74641 -0.309743 16.7117
499 1 1 0 1 -2.1326 -0.0755857 14.3569
500 1 1 0 1 -3.0073 -3.85492 15.3612
501 1 1 0 1 1.87277 -2.66889 10.7872
502 1 1 0 1 -1.98544 -3.47981 15.6411
503 1 1 0 1 -2.75007 2.1029 18.6942
504 1 1 0 1 -4.77538 -3.12137 17.3788
505 1 1 0 1 -3.70109 -1.1118 15.7241
506 1 1 0 1 -6.2229 0.654768 21.499
507 1 1 0 1 -3.1528 2.42804 -1.27638
508 1 1 0 1 -1.7667 -0.559199 0.487458
509 1 1 0 1 -1.84768 2.60805 0.168112
510 1 1 0 1 -2.19995 0.796278 -0.354376
511 1 1 0 1 0.0583184 4.67693 3.3696
512 1 1 0 1 0.73671 6.71682 7.96621
513 1 1 0 1 -2.04106 -0.772749 6.40873
514 1 1 0 1 -1.50832 -1.12494 4.24688
515 1 1 0 1 1.17625 4.7615 5.69677
516 1 1 0 1 -4.32397 1.1693 7.73647
517 1 1 0 1 -1.91304 3.19434 8.95096
518 1 1 0 1 0.406131 2.21001 8.26363
519 1 1 0 1 -4.63299 1.62599 15.194
520 1 1 0 1 -1.46644 -1.07785 11.9307
521 1 1 0 1 0.852577 0.705387 11.848
522 1 1 0 1 -0.835623 3.40352 14.4934
523 1 1 0 1 -1.43447 1.84424 16.3018
524 1 1 0 1 -1.40461 0.64782 16.2876
525 1 1 0 1 -6.56142 1.77033 20.9343
526 1 1 0 1 -0.42912 -2.84152 18.4495
527 1 1 0 1 1.45643 3.00101 19.03
528 1 1 0 1 -0.877385 5.51323 23.8046
529 1 1 0 1 1.80424 7.88118 2.95873
530 1 1 0 1 -3.96794 -0.965283 -4.27566
531 1 1 0 1 -1.49776 5.24028 -0.571917
532 1 1 0 1 -3.58397 -2.11936 -2.59565
533 1 1 0 1 0.664843 3.10128 0.692964
534 1 1 0 1 -1.88933 2.77474 4.77936
535 1 1 0 1 -0.757386 2.76135 4.90315
536 1 1 0 1 -1.65203 4.9749 4.35436
537 1 1 0 1 -2.48992 1.83247 9.26194
538 1 1 0 1 -2.8981 -0.24874 9.66102
539 1 1 0 1 -4.20048 5.04942 13.9358
540 1 1 0 1 0.0591611 0.911191 13.0124
541 1 1 0 1 -4.60264 6.97953 14.9733
542 1 1 0 1 -2.33293 4.89593 15.5529
543 1 1 0 1 -5.11989 5.45471 16.2438
544 1 1 0 1 1.48411 3.91476 15.7044
545 1 1 0 1 -0.769462 4.83643 15.2253
546 1 1 0 1 0.570243 1.06479 14.702
547 1 1 0 1 -6.06222 0.893497 18.0704
548 1 1 0 1 -2.86942 4.41312 21.3727
549 1 1 0 1 0.856639 5.28912 22.5564
550 1 1 0 1 -0.178544 1.67357 20.7818
551 1 1 0 1 -2.57983 5.32773 3.09517
552 1 1 0 1 -4.17518 6.58178 -2.08242
553 1 1 0 1 -2.84543 4.9562 2.13335
554 1 1 0 1 -0.511993 4.6405 -0.318419
555 1 1 0 1 -2.60086 3.93556 5.04069
556 1 1 0 1 -3.53729 4.24067 5.65133
557 1 1 0 1 -0.889021 5.35958 7.38614
558 1 1 0 1 -2.47571 2.92652 9.83166
559 1 1 0 1 -1.29931 2.81352 9.69877
560 1 1 0 1 -2.40636 0.60826 5.88626
561 1 1 0 1 -1.89034 1.27776 14.1417
562 1 1 0 1 -0.403837 4.5477 12.1398
563 1 1 0 1 -2.54286 5.44113 11.9975
564 1 1 0 1 -2.48844 -0.661213 13.5891
565 1 1 0 1 0.470094 5.30524 14.6291
566 1 1 0 1 1.55338 2.96743 15.1907
567 1 1 0 1 1.90067 6.3533 17.909
568 1 1 0 1 -0.841052 5.83911 13.9315
569 1 1 0 1 0.182409 1.66031 17.6094
570 1 1 0 1 -2.05184 1.9261 21.4327
571 1 1 0 1 2.43586 3.31673 19.7743
572 1 1 0 1 1.9433 4.23137 21.3311
573 1 1 0 1 1.53343 5.22439 -0.562566
574 1 1 0 1 -1.92179 3.82094 4.04259
575 1 1 0 1 -4.84724 0.249935 0.863213
576 1 1 0 1 -2.09742 4.26529 2.67775
577 1 1 0 1 -1.9842 4.34419 6.53397
578 1 1 0 1 -3.25129 5.94721 7.50373
579 1 1 0 1 -0.803593 6.38028 7.74104
580 1 1 0 1 -3.47431 4.12546 8.46078
581 1 1 0 1 -3.34517 7.97961 10.8075
582 1 1 0 1 0.969979 4.0745 9.06136
583 1 1 0 1 -3.04022 4.50928 10.3395
584 1 1 0 1 -2.56455 7.80659 13.2727
585 1 1 0 1 -3.29951 5.66359 16.0879
586 1 1 0 1 -2.5056 12.0505 15.9344
587 1 1 0 1 -4.12258 9.72147 14.0681
588 1 1 0 1 -6.16035 6.30805 14.9732
589 1 1 0 1 -5.40354 3.812 21.1076
590 1 1 0 1 0.573581 4.49957 21.1868
591 1 1 0 1 -3.30869 6.61798 15.6893
592 1 1 0 1 -2.38515 2.15071 23.1071
593 1 1 0 1 -2.08026 2.42038 16.8698
594 1 1 0 1 -4.91861 -0.235122 21.5061
595 1 1 0 1 -2.63875 2.74368 -2.25337
596 1 1 0 1 -4.68126 5.83052 3.26667
597 1 1 0 1 -3.65829 0.85624 4.62276
598 1 1 0 1 2.37462 2.2494 1.85453
599 1 1 0 1 3.35122 3.78401 4.69783
600 1 1 0 1 0.170377 8.72067 0.873612
601 1 1 0 1 -5.76792 5.73202 7.70266
602 1 1 0 1 4.82594 4.999 6.68583
603 1 1 0 1 2.9221 2.71447 11.2882
604 1 1 0 1 2.35003 6.84163 9.62711
605 1 1 0 1 1.54217 4.26227 11.4637
606 1 1 0 1 -1.72567 -0.252677 12.7397
607 1 1 0 1 -0.790966 10.1104 9.66686
608 1 1 0 1 -0.871434 2.28712 10.8233
609 1 1 0 1 1.70108 6.80212 13.8382
610 1 1 0 1 -0.9459 6.22424 15.4255
611 1 1 0 1 -1.27364 1.8285 11.7061
612 1 1 0 1 -0.378187 5.68065 17.0487
613 1 1 0 1 0.163864 5.00676 17.9801
614 1 1 0 1 -1.86858 3.53375 19.9705
615 1 1 0 1 -3.3479 2.9303 21.7008
616 1 1 0 1 -1.3556 5.51567 17.5296
617 1 1 0 1 2.02423 3.05569 2.46033
618 1 1 0 1 -5.25316 5.63988 -1.09783
619 1 1 0 1 -3.91845 10.7541 2.90595
620 1 1 0 1 1.8319 6.29528 5.34964
621 1 1 0 1 -1.34728 2.02535 4.21279
622 1 1 0 1 -3.99284 6.58713 5.11721
623 1 1 0 1 -5.65381 4.02244 2.60345
624 1 1 0 1 0.0645737 3.69357 3.93477
625 1 1 0 1 -2.49526 9.2381 9.79008
626 1 1 0 1 -2.92647 6.38705 12.4624
627 1 1 0 1 -5.18401 3.61982 15.3481
628 1 1 0 1 0.780566 5.35197 6.92911
629 1 1 0 1 -2.37815 7.60148 12.1134
630 1 1 0 1 2.1823 10.2668 13.8697
631 1 1 0 1 -7.38807 12.0369 9.55831
632 1 1 0 1 0.783619 4.67902 15.7625
633 1 1 0 1 -8.07811 10.4554 16.6904
634 1 1 0 1 -2.0028 6.00751 19.6252
635 1 1 0 1 -2.25369 8.29402 18.7834
636 1 1 0 1 -3.33088 3.44419 16.9338
637 1 1 0 1 -4.23363 3.18531 23.8136
638 1 1 0 1 0.185061 6.3914 20.6009
639 1 1 0 1 -1.1767 3.1011 3.89199
640 1 1 0 1 -0.103239 7.19179 -0.125451
641 1 1 0 1 -0.224929 6.30493 1.7759
642 1 1 0 1 -3.47371 4.29889 1.82164
643 1 1 0 1 -0.225025 9.02871 1.77819
644 1 1 0 1 -2.45169 7.42571 6.37899
645 1 1 0 1 -2.71192 6.47753 5.84125
646 1 1 0 1 1.83644 6.30246 6.8638
647 1 1 0 1 -3.0603 8.48177 1.49415
648 1 1 0 1 -5.41811 10.2081 8.8815
649 1 1 0 1 -0.632094 8.73916 7.87576
650 1 1 0 1 3.01606 8.3905 12.392
651 1 1 0 1 -3.23016 8.87292 8.73222
652 1 1 0 1 -2.74588 9.46341 17.7038
653 1 1 0 1 -2.38724 15.8455 12.5952
654 1 1 0 1 1.5126 8.50148 18.5286
655 1 1 0 1 -2.38067 8.53565 16.4505
656 1 1 0 1 -2.82039 7.60877 19.6081
657 1 1 0 1 2.46209 4.74269 17.1682
658 1 1 0 1 1.33796 8.15001 21.6906
659 1 1 0 1 -2.45548 5.42222 16.8688
660 1 1 0 1 -1.01435 8.88951 20.1944
661 1 1 0 1 -3.7532 5.91804 1.37056
662 1 1 0 1 -1.75269 10.0506 -1.30753
663 1 1 0 1 -4.08227 2.43529 1.13903
664 1 1 0 1 -3.54025 8.05582 3.73441
665 1 1 0 1 -4.37038 5.16804 5.4255
666 1 1 0 1 -1.94518 5.5783 11.0267
667 1 1 0 1 -4.59747 4.64078 3.1848
668 1 1 0 1 -3.66171 6.10936 6.26041
669 1 1 0 1 1.06381 10.9502 7.10877
670 1 1 0 1 0.0231685 9.41476 10.419
671 1 1 0 1 1.72426 3.31099 9.41997
672 1 1 0 1 -2.931 11.8711 14.9296
673 1 1 0 1 -3.46931 11.0308 16.1403
674 1 1 0 1 0.731963 9.6103 16.523
675 1 1 0 1 -1.89367 10.5171 16.8742
676 1 1 0 1 -5.35746 10.6484 17.6532
677 1 1 0 1 -0.697296 12.761 18.0753
678 1 1 0 1 3.18506 5.02162 18.7049
679 1 1 0 1 -0.554524 6.14996 18.3278
680 1 1 0 1 -2.45501 7.28913 15.3082
681 1 1 0 1 0.721202 10.5063 19.1713
682 1 1 0 1 -0.0305364 7.84092 20.9384
683 1 1 0 1 -2.27186 9.78272 1.71097
684 1 1 0 1 -1.27871 8.21088 3.87048
685 1 1 0 1 -2.5181 12.1749 6.07731
686 1 1 0 1 0.793608 8.59989 6.95075
687 1 1 0 1 -0.744612 14.6528 3.4287
688 1 1 0 1 -1.93792 14.2982 7.57396
689 1 1 0 1 -1.93672 8.84616 7.27147
690 1 1 0 1 1.0904 6.48335 11.2354
691 1 1 0 1 1.16902 6.77328 10.098
692 1 1 0 1 -0.822103 9.18871 8.8431
693 1 1 0 1 -2.32439 7.56854 16.9249
694 1 1 0 1 -2.85475 12.9771 15.4896
695 1 1 0 1 -0.0176373 8.83503 14.5764
696 1 1 0 1 1.76722 9.60879 16.829
697 1 1 0 1 -1.83094 9.23431 16.9557
698 1 1 0 1 -7.19762 9.96928 17.1175
699 1 1 0 1 -1.78147 11.0032 20.1739
700 1 1 0 1 -0.314256 15.031 16.4503
701 1 1 0 1 -3.89994 9.651 19.4711
702 1 1 0 1 -3.55876 8.06475 18.3582
703 1 1 0 1 0.75628 9.76985 18.2336
704 1 1 0 1 -3.2145 16.7773 21.7282
705 1 1 0 1 1.27585 9.68487 2.14062
706 1 1 0 1 -2.13112 8.82958 1.92635
707 1 1 0 1 -1.38595 15.2662 -0.0356426
708 1 1 0 1 -1.24785 11.4469 -0.832859
709 1 1 0 1 -3.36261 9.5229 5.51039
710 1 1 0 1 -1.10274 12.1682 7.86279
711 1 1 0 1 -1.46426 10.4569 6.75059
712 1 1 0 1 -4.03851 11.8055 6.91787
713 1 1 0 1 0.515935 11.8937 6.78497
714 1 1 0 1 0.953721 11.0242 8.07125
715 1 1 0 1 -4.45368 8.6481 14.3099
716 1 1 0 1 -3.63924 14.7309 16.7975
717 1 1 0 1 -2.13649 12.607 14.9561
718 1 1 0 1 -1.74167 11.4741 15.3567
719 1 1 0 1 0.142199 10.7371 18.2596
720 1 1 0 1 -0.592408 11.6214 17.6569
721 1 1 0 1 -1.80773 13.0338 18.0839
722 1 1 0 1 0.406418 16.0032 21.6954
723 1 1 0 1 -0.964893 7.49199 18.3049
724 1 1 0 1 0.0952649 15.7175 18.2246
725 1 1 0 1 -1.32745 12.611 21.2291
726 1 1 0 1 -0.525841 12.4117 21.9714
727 1 1 0 1 -0.655528 13.3503 -0.332963
728 1 1 0 1 -1.61205 9.82804 -2.54695
729 1 1 0 1 -5.83927 10.9611 -0.697869
730 1 1 0 1 -1.4484 11.0248 0.168094
731 1 1 0 1 -0.829623 11.1393 2.22334
732 1 1 0 1 -1.293 9.48613 2.0306
733 1 1 0 1 -2.53345 8.25951 3.90905
734 1 1 0 1 -0.284913 10.6421 8.56716
735 1 1 0 1 -1.53915 13.2211 4.6003
736 1 1 0 1 -4.29237 13.4481 4.28955
737 1 1 0 1 -0.820342 9.04646 12.8485
738 1 1 0 1 3.75038 12.3124 9.27027
739 1 1 0 1 -2.55462 8.62748 12.3859
740 1 1 0 1 -2.54079 12.3279 17.3573
741 1 1 0 1 -2.791 10.3386 15.3217
742 1 1 0 1 -2.16574 11.8949 19.4039
743 1 1 0 1 -0.458232 11.8491 18.9586
744 1 1 0 1 -1.72004 10.99 23.6173
745 1 1 0 1 2.49739 11.5167 20.4321
746 1 1 0 1 -2.54561 11.0347 22.1539
747 1 1 0 1 0.494543 12.8274 21.1608
748 1 1 0 1 -1.98939 12.8214 20.3284
749 1 1 0 1 -1.67824 13.4174 6.52568
750 1 1 0 1 0.902491 9.97876 3.19974
751 1 1 0 1 -4.0816 11.1546 5.282
752 1 1 0 1 -4.4176 14.9439 1.38584
753 1 1 0 1 0.146979 14.5239 6.37128
754 1 1 0 1 -2.06993 11.9868 -0.121123
755 1 1 0 1 0.97479 11.7413 5.63414
756 1 1 0 1 -4.98744 14.3685 5.59413
757 1 1 0 1 -1.33762 9.39163 11.995
758 1 1 0 1 -1.81077 10.0157 9.51595
759 1 1 0 1 -4.39463 9.44945 11.7074
760 1 1 0 1 -0.801133 10.4599 12.4436
761 1 1 0 1 -0.777514 12.8047 13.8698
762 1 1 0 1 1.42601 14.0784 14.114
763 1 1 0 1 -1.81036 13.8327 14.7148
764 1 1 0 1 -0.923742 14.9093 13.1677
765 1 1 0 1 -0.896732 13.5272 20.0678
766 1 1 0 1 -0.153286 12.9248 16.0849
767 1 1 0 1 -1.76246 14.4898 20.478
768 1 1 0 1 0.604563 12.9965 22.303
769 1 1 0 1 2.37115 11.4201 21.9612
770 1 1 0 1 -1.817 15.2996 23.1871
771 1 1 0 1 -0.125175 15.2484 0.593756
772 1 1 0 1 -1.2982 13.4838 7.532
773 1 1 0 1 -1.88362 12.4353 1.95052
774 1 1 0 1 -0.680889 14.2955 9.29116
775 1 1 0 1 -2.83652 16.0753 3.38741
776 1 1 0 1 -0.48925 13.1642 8.25027
777 1 1 0 1 -4.70024 17.3883 7.15843
778 1 1 0 1 -5.15791 12.1303 7.22436
779 1 1 0 1 -0.334732 13.0162 12.5059
780 1 1 0 1 0.129382 12.6755 10.8108
781 1 1 0 1 1.20548 10.5477 13.9347
782 1 1 0 1 -1.32322 12.659 15.8982
783 1 1 0 1 -2.94433 16.8361 15.774
784 1 1 0 1 -1.00542 14.6775 15.3358
785 1 1 0 1 -2.46367 14.8863 15.0621
786 1 1 0 1 -2.11056 14.4616 18.8916
787 1 1 0 1 0.886484 13.4868 17.7094
788 1 1 0 1 -5.29028 16.3229 14.1442
789 1 1 0 1 -1.13737 16.2629 15.5562
790 1 1 0 1 0.930434 11.7212 23.7648
791 1 1 0 1 -0.344515 10.3442 17.209
792 1 1 0 1 0.642108 11.8489 19.6265
793 1 1 0 1 -6.27164 14.6858 0.977008
794 1 1 0 1 1.24212 14.5613 3.38141
795 1 1 0 1 3.06773 18.5497 3.5078
796 1 1 0 1 0.631947 15.4356 3.58896
797 1 1 0 1 -3.59412 16.3895 4.31599
798 1 1 0 1 -3.02773 17.1439 5.02916
799 1 1 0 1 -3.55129 14.4945 6.61049
800 1 1 0 1 -0.0911821 5.67881 5.40518
801 1 1 0 1 2.78844 11.6626 11.4752
802 1 1 0 1 -2.69515 17.145 6.95922
803 1 1 0 1 -1.06019 14.0012 14.0506
804 1 1 0 1 -1.83194 14.0385 12.1136
805 1 1 0 1 1.26359 14.0975 12.7273
806 1 1 0 1 0.276819 10.5026 9.76029
807 1 1 0 1 -1.67244 14.8822 14.4946
808 1 1 0 1 1.50031 19.5963 12.9062