ITEM: TIMESTEP
5000
ITEM: NUMBER OF ATOMS
6752
ITEM: BOX BOUNDS pp pp pp
0.0000000000000000e+00 2.2000000000000000e+01
0.0000000000000000e+00 2.2000000000000000e+01
0.0000000000000000e+00 2.2000000000000000e+01
ITEM: ATOMS id mol type q mass xu yu zu
1 1 1 0 1 -2.73316 -3.62747 -1.5798
2 1 1 0 1 -3.49825 1.00668 -0.881558
3 1 1 0 1 -2.51397 4.24044 2.47475
4 1 1 0 1 -4.19661 -2.17389 7.68946
5 1 1 0 1 -1.01223 2.61586 3.34814
6 1 1 0 1 -5.54128 3.05378 6.42912
7 1 1 0 1 -4.88323 6.72379 3.4761
8 1 1 0 1 -1.50665 -1.08021 9.23164
9 1 1 0 1 -0.184701 0.263743 7.68882
10 1 1 0 1 -5.70945 4.46809 6.25243
11 1 1 0 1 -2.51102 3.58802 8.41846
12 1 1 0 1 -1.74514 -1.57766 13.2543
13 1 1 0 1 -2.77794 1.30953 14.1301
14 1 1 0 1 -2.17086 5.47996 13.7329
15 1 1 0 1 -6.1195 5.27739 14.9803
16 1 1 0 1 -5.5093 -4.88138 13.4389
17 1 1 0 1 -1.4272 2.39039 14.2973
18 1 1 0 1 -0.637899 3.12102 17.2261
19 1 1 0 1 -1.01495 2.46267 19.5845
20 1 1 0 1 -2.89709 -1.50658 18.6502
21 1 1 0 1 -6.01004 4.69175 19.2753
22 1 1 0 1 -5.07802 7.23127 19.3826
23 1 1 0 1 -5.28751 5.96351 2.36854
24 1 1 0 1 -5.98586 2.03861 -0.0518585
25 1 1 0 1 -4.38568 -1.89173 -1.93309
26 1 1 0 1 -0.142738 -0.877736 4.62494
27 1 1 0 1 -2.7635 -0.200158 6.45453
28 1 1 0 1 -4.50079 2.12158 2.45183
29 1 1 0 1 -4.16915 -0.284015 9.01368
30 1 1 0 1 0.278379 -0.797927 5.90242
31 1 1 0 1 -4.95119 4.31434 10.4255
32 1 1 0 1 -4.68834 -1.13216 7.08604
33 1 1 0 1 -3.90824 2.65697 11.4256
34 1 1 0 1 -2.69962 2.16856 12.1462
35 1 1 0 1 -4.62155 -0.59223 13.6303
36 1 1 0 1 -1.63224 1.86134 7.86745
37 1 1 0 1 -5.45735 2.12251 14.3701
38 1 1 0 1 -1.84813 0.997017 19.5254
39 1 1 0 1 -1.06246 1.17457 15.9011
40 1 1 0 1 -2.35265 3.51777 20.8779
41 1 1 0 1 -4.56353 1.61445 14.4952
42 1 1 0 1 -7.78171 0.874222 23.5122
43 1 1 0 1 -1.92388 6.23198 22.0587
44 1 1 0 1 -2.41641 4.46881 19.8107
45 1 1 0 1 -7.61625 5.7986 4.95166
46 1 1 0 1 -7.63307 8.5634 8.87392
47 1 1 0 1 -2.79077 -0.035114 -1.49373
48 1 1 0 1 -7.86771 3.79138 4.19116
49 1 1 0 1 -1.19014 5.63765 3.24419
50 1 1 0 1 -5.48238 6.9133 1.80912
51 1 1 0 1 -2.36695 3.6951 5.71659
52 1 1 0 1 -2.67361 4.80038 14.4449
53 1 1 0 1 -3.68623 0.665115 7.53412
54 1 1 0 1 -3.09411 1.39084 11.3551
55 1 1 0 1 -4.49404 2.73974 10.4256
56 1 1 0 1 -2.88805 1.49916 13.0587
57 1 1 0 1 -4.27669 7.78679 10.7552
58 1 1 0 1 -2.33211 6.88474 16.2787
59 1 1 0 1 -3.64924 2.34695 15.0212
60 1 1 0 1 -1.23864 0.391309 20.1165
61 1 1 0 1 -3.27516 5.0361 16.0336
62 1 1 0 1 -0.0932491 2.21355 17.4019
63 1 1 0 1 -3.05336 10.4172 11.6649
64 1 1 0 1 -4.96155 4.20183 16.7056
65 1 1 0 1 -5.93397 3.70571 20.5182
66 1 1 0 1 -6.87241 2.64466 25.6664
67 1 1 0 1 -7.23987 2.08939 1.49268
68 1 1 0 1 -3.89974 5.53061 -2.83094
69 1 1 0 1 -0.285042 4.82589 0.615963
70 1 1 0 1 -3.77574 5.44199 1.5885
71 1 1 0 1 -0.970616 2.96051 4.36838
72 1 1 0 1 -6.07425 2.67618 2.15722
73 1 1 0 1 -1.48554 2.23223 6.70077
74 1 1 0 1 -5.06541 3.97152 4.61259
75 1 1 0 1 -4.39354 5.09164 6.24823
76 1 1 0 1 -2.44266 2.64384 7.85476
77 1 1 0 1 -1.16525 -0.305304 12.0597
78 1 1 0 1 -5.39606 5.55321 14.0949
79 1 1 0 1 -2.24487 1.80784 10.4651
80 1 1 0 1 -1.34285 6.40213 13.2977
81 1 1 0 1 -1.44407 4.61999 16.2124
82 1 1 0 1 0.552651 3.63442 15.7097
83 1 1 0 1 -2.1578 2.92993 16.7797
84 1 1 0 1 -2.34494 0.932782 15.1567
85 1 1 0 1 -2.25669 3.40783 19.0679
86 1 1 0 1 -1.99283 5.80815 18.087
87 1 1 0 1 -8.82826 1.98856 25.6441
88 1 1 0 1 -3.45022 7.02343 21.0716
89 1 1 0 1 -3.8719 8.42301 -0.379494
90 1 1 0 1 -2.82986 8.41903 5.34962
91 1 1 0 1 -3.06416 2.17684 2.14079
92 1 1 0 1 -4.16643 7.89391 4.76235
93 1 1 0 1 -5.4239 8.2388 6.38466
94 1 1 0 1 -3.17925 3.11904 6.04803
95 1 1 0 1 -5.26533 6.96901 6.72933
96 1 1 0 1 -3.28499 5.12571 11.1828
97 1 1 0 1 -3.92129 6.67056 8.85432
98 1 1 0 1 -0.554141 2.62592 5.3292
99 1 1 0 1 -4.21216 6.9404 11.6444
100 1 1 0 1 -1.14469 3.49667 8.49682
101 1 1 0 1 -5.12438 4.76313 13.5671
102 1 1 0 1 -4.60531 3.39069 15.2296
103 1 1 0 1 -5.21184 8.43222 11.0554
104 1 1 0 1 -1.94753 7.91627 16.3254
105 1 1 0 1 -2.37429 5.58915 12.5539
106 1 1 0 1 -2.35539 2.08033 17.9941
107 1 1 0 1 -3.95888 7.1702 17.9118
108 1 1 0 1 -2.79232 7.53812 20.389
109 1 1 0 1 -3.91666 5.96555 17.4201
110 1 1 0 1 -4.96248 5.58877 23.3152
111 1 1 0 1 -5.57772 0.71065 0.966311
112 1 1 0 1 -2.5823 5.44569 2.44548
113 1 1 0 1 -0.418159 9.53292 5.20193
114 1 1 0 1 -4.44099 4.65985 1.90378
115 1 1 0 1 -2.80702 8.0404 3.4774
116 1 1 0 1 -4.69603 7.94425 3.73326
117 1 1 0 1 -0.288462 6.42909 6.72915
118 1 1 0 1 -1.96542 4.30569 9.28164
119 1 1 0 1 -2.33454 1.99747 9.44407
120 1 1 0 1 -1.80457 1.53621 11.6815
121 1 1 0 1 -3.15532 3.17231 10.391
122 1 1 0 1 -7.66386 5.67375 8.69447
123 1 1 0 1 -2.12651 7.23053 12.0664
124 1 1 0 1 -3.74984 10.4494 14.1004
125 1 1 0 1 -7.62075 10.493 10.1108
126 1 1 0 1 -5.73379 5.74437 16.3595
127 1 1 0 1 -1.33523 4.06761 17.2031
128 1 1 0 1 -5.08541 10.9929 15.6429
129 1 1 0 1 -1.359 4.82568 17.8707
130 1 1 0 1 -4.7908 2.8164 19.2548
131 1 1 0 1 -2.48864 3.08978 17.7844
132 1 1 0 1 -6.83964 6.67675 23.7484
133 1 1 0 1 -2.94433 6.52049 -0.204843
134 1 1 0 1 -6.35014 2.62712 5.36749
135 1 1 0 1 -4.20537 5.6743 3.65768
136 1 1 0 1 -4.18699 10.1094 1.98439
137 1 1 0 1 -6.47014 8.47959 6.0909
138 1 1 0 1 -9.28243 10.3735 4.99947
139 1 1 0 1 0.678799 9.23652 5.75119
140 1 1 0 1 -2.03054 8.85056 3.38555
141 1 1 0 1 3.7028 3.98473 6.56086
142 1 1 0 1 -3.44217 2.04884 10.4574
143 1 1 0 1 0.326646 3.81069 11.9266
144 1 1 0 1 -0.61418 4.59851 8.86152
145 1 1 0 1 -2.10661 9.72934 13.4721
146 1 1 0 1 -1.8789 9.13983 16.2484
147 1 1 0 1 -3.52485 12.3892 14.3201
148 1 1 0 1 -3.18089 11.8162 13.2372
149 1 1 0 1 -3.52499 10.8175 18.7435
150 1 1 0 1 -4.49246 8.17781 19.2249
151 1 1 0 1 -2.09206 5.46837 21.3258
152 1 1 0 1 -5.4226 6.00152 20.0635
153 1 1 0 1 -2.67882 5.34192 18.8241
154 1 1 0 1 -2.76639 6.93546 25.031
155 1 1 0 1 -4.38181 5.38878 -3.74319
156 1 1 0 1 -4.50427 3.59123 2.2131
157 1 1 0 1 -1.81676 5.78976 4.43102
158 1 1 0 1 -0.50255 8.2331 4.95608
159 1 1 0 1 -3.96649 9.58641 -0.626223
160 1 1 0 1 -8.65116 6.95267 5.74194
161 1 1 0 1 -1.7744 8.60154 4.73122
162 1 1 0 1 -2.65822 6.67796 5.17021
163 1 1 0 1 0.322192 8.88343 7.92813
164 1 1 0 1 -2.8983 8.67912 8.80405
165 1 1 0 1 -3.42047 9.89875 8.5635
166 1 1 0 1 -2.07099 8.69372 14.3617
167 1 1 0 1 -2.7583 10.5655 12.87
168 1 1 0 1 -2.07611 10.1149 20.8459
169 1 1 0 1 -4.11443 10.7347 15.8554
170 1 1 0 1 -2.5501 10.1274 19.9038
171 1 1 0 1 -1.15354 10.0875 17.1517
172 1 1 0 1 -2.21977 8.0997 19.5156
173 1 1 0 1 -1.49631 6.57574 17.4906
174 1 1 0 1 -2.34363 1.62114 23.405
175 1 1 0 1 -2.46969 6.93533 19.4891
176 1 1 0 1 -2.31768 7.31888 23.0768
177 1 1 0 1 -2.30773 3.27871 1.22997
178 1 1 0 1 -0.0368228 11.5008 1.96401
179 1 1 0 1 -4.57019 13.8966 5.2988
180 1 1 0 1 -3.97225 6.41942 1.40039
181 1 1 0 1 -4.2038 9.51449 5.50764
182 1 1 0 1 -4.43471 11.5203 4.45688
183 1 1 0 1 -2.13575 7.66069 5.17575
184 1 1 0 1 -2.3835 8.68132 6.96097
185 1 1 0 1 -0.401131 5.4708 10.0329
186 1 1 0 1 -6.9384 11.3078 7.17039
187 1 1 0 1 -7.12685 10.7499 8.70168
188 1 1 0 1 -1.17292 2.47 10.8072
189 1 1 0 1 -1.067 12.2449 13.8221
190 1 1 0 1 -1.55319 7.19877 18.3343
191 1 1 0 1 -2.11433 11.9611 18.6802
192 1 1 0 1 -2.42652 10.4145 16.874
193 1 1 0 1 -3.20748 6.61644 18.9293
194 1 1 0 1 -4.71204 10.2513 19.1781
195 1 1 0 1 -3.01801 9.95485 17.8952
196 1 1 0 1 -3.25234 3.62067 20.2027
197 1 1 0 1 -2.71628 7.96037 21.3952
198 1 1 0 1 -0.881591 6.7476 21.1628
199 1 1 0 1 -2.82968 7.52409 2.16099
200 1 1 0 1 -2.31158 10.4255 1.43759
201 1 1 0 1 -3.03852 11.1253 1.52084
202 1 1 0 1 -3.85233 7.52628 1.51592
203 1 1 0 1 -4.36523 10.8693 3.46208
204 1 1 0 1 -4.22669 11.9291 3.10246
205 1 1 0 1 -3.93408 10.4757 6.47396
206 1 1 0 1 2.09524 8.16577 7.89721
207 1 1 0 1 -3.6043 6.536 3.65507
208 1 1 0 1 -3.8839 7.91484 12.1351
209 1 1 0 1 -2.31629 7.73716 9.16665
210 1 1 0 1 -1.35247 11.0429 15.0997
211 1 1 0 1 -4.00643 9.03223 11.7621
212 1 1 0 1 -2.23826 11.2751 11.4976
213 1 1 0 1 1.31497 14.2376 17.6286
214 1 1 0 1 -7.33595 11.512 17.6801
215 1 1 0 1 -4.9566 11.7988 17.0813
216 1 1 0 1 -3.1374 10.3953 21.379
217 1 1 0 1 -5.32992 10.5365 24.114
218 1 1 0 1 -3.95026 8.89285 19.8162
219 1 1 0 1 -0.0120705 9.01468 20.295
220 1 1 0 1 -0.719603 9.73865 23.2095
221 1 1 0 1 -0.758542 10.1033 -1.87466
222 1 1 0 1 -3.49472 11.5291 2.49111
223 1 1 0 1 -6.47244 13.6205 5.27394
224 1 1 0 1 -3.89752 12.8412 1.68896
225 1 1 0 1 -6.44463 14.7958 5.834
226 1 1 0 1 -5.54679 13.0651 9.56957
227 1 1 0 1 -9.48285 11.5388 4.51269
228 1 1 0 1 -1.21177 10.9555 4.65683
229 1 1 0 1 -4.73035 7.37353 9.28317
230 1 1 0 1 -6.96074 6.78123 8.09259
231 1 1 0 1 -2.91094 9.19911 14.1984
232 1 1 0 1 -1.88408 6.70913 10.0305
233 1 1 0 1 -3.12795 11.3078 16.1018
234 1 1 0 1 -9.01758 8.99417 13.3027
235 1 1 0 1 -1.35829 13.6211 15.9909
236 1 1 0 1 -7.62258 11.8953 15.2627
237 1 1 0 1 -5.41256 13.0611 17.5271
238 1 1 0 1 -1.38377 13.5415 12.1898
239 1 1 0 1 -3.07542 13.7296 17.7842
240 1 1 0 1 -3.48114 12.1298 16.8873
241 1 1 0 1 -4.83 11.6314 20.6155
242 1 1 0 1 -2.25103 8.32955 22.4779
243 1 1 0 1 -3.29682 8.43634 0.530108
244 1 1 0 1 -3.49292 11.4444 0.565023
245 1 1 0 1 -5.49917 13.9844 6.02991
246 1 1 0 1 -3.7818 13.3756 3.75545
247 1 1 0 1 -5.52032 10.8059 5.71559
248 1 1 0 1 -3.5081 8.36766 6.53273
249 1 1 0 1 -3.46965 7.3811 5.54248
250 1 1 0 1 -1.00652 8.03564 9.26982
251 1 1 0 1 -1.97564 8.57019 9.63228
252 1 1 0 1 0.439844 7.21409 7.34308
253 1 1 0 1 -1.66034 4.00924 11.1824
254 1 1 0 1 -0.844814 10.788 12.3952
255 1 1 0 1 -4.17081 10.2274 11.1047
256 1 1 0 1 -6.55198 14.2138 17.425
257 1 1 0 1 -2.08531 13.8907 17.3795
258 1 1 0 1 -2.14194 12.1937 13.3777
259 1 1 0 1 -1.09091 13.1443 18.0197
260 1 1 0 1 -2.40584 14.4026 15.0868
261 1 1 0 1 -3.2562 8.02907 17.9595
262 1 1 0 1 -2.81001 12.7571 20.6668
263 1 1 0 1 -1.39164 10.177 18.6624
264 1 1 0 1 -0.471906 15.7987 20.6197
265 1 1 0 1 -1.02001 13.8248 1.33653
266 1 1 0 1 1.74324 16.4477 2.24842
267 1 1 0 1 -3.9584 14.99 5.25024
268 1 1 0 1 -5.78141 13.27 2.612
269 1 1 0 1 -1.75658 8.1473 8.30193
270 1 1 0 1 -3.76825 13.2371 5.02302
271 1 1 0 1 -5.13763 11.4278 7.17605
272 1 1 0 1 -4.77151 11.4955 8.56812
273 1 1 0 1 -5.20191 12.5396 6.75542
274 1 1 0 1 -5.53221 6.52408 9.488
275 1 1 0 1 -6.26667 8.70706 11.0766
276 1 1 0 1 -2.13202 11.9257 10.2936
277 1 1 0 1 -3.931 11.0027 10.4666
278 1 1 0 1 -2.4604 14.7425 10.8167
279 1 1 0 1 -3.84928 12.6781 12.7185
280 1 1 0 1 -3.25449 14.2367 7.97194
281 1 1 0 1 -2.98807 15.5805 17.9204
282 1 1 0 1 -2.9539 11.5643 10.7546
283 1 1 0 1 -0.233235 16.3707 17.3883
284 1 1 0 1 -2.92321 14.7397 17.2121
285 1 1 0 1 -4.09127 11.0871 17.0085
286 1 1 0 1 -4.5734 13.4089 21.3358
287 1 1 0 1 -2.05311 14.649 4.00937
288 1 1 0 1 -0.373225 13.0043 2.57766
289 1 1 0 1 -5.17903 7.62713 5.03522
290 1 1 0 1 -6.94285 11.0936 3.75008
291 1 1 0 1 -6.07097 6.59845 11.7124
292 1 1 0 1 -2.83335 14.807 9.00244
293 1 1 0 1 0.137188 10.8223 5.08478
294 1 1 0 1 -3.84454 12.2494 8.85119
295 1 1 0 1 -1.4732 11.0334 7.9584
296 1 1 0 1 -1.39465 11.0098 13.3614
297 1 1 0 1 -2.65897 13.8338 9.54392
298 1 1 0 1 -5.10925 12.0689 14.4833
299 1 1 0 1 -1.35136 15.0686 13.8343
300 1 1 0 1 -1.4758 12.1869 17.4106
301 1 1 0 1 -4.62496 16.2642 12.7133
302 1 1 0 1 -1.64633 13.2352 13.6173
303 1 1 0 1 -4.08017 14.2061 16.9381
304 1 1 0 1 0.491244 9.37971 8.86603
305 1 1 0 1 -2.08325 12.152 16.0657
306 1 1 0 1 -1.19855 16.6266 19.1552
307 1 1 0 1 -3.84936 14.9788 17.6865
308 1 1 0 1 -0.180993 16.5878 25.3417
309 1 1 0 1 -5.531 12.135 2.72238
310 1 1 0 1 -6.81215 15.0901 4.32636
311 1 1 0 1 -6.90197 16.5416 2.20445
312 1 1 0 1 -8.32564 12.6579 8.27506
313 1 1 0 1 -2.74184 12.9296 6.77761
314 1 1 0 1 -2.40807 10.5625 4.94069
315 1 1 0 1 -1.13092 9.83197 8.13944
316 1 1 0 1 -2.601 13.4534 4.7475
317 1 1 0 1 -5.43225 13.6698 7.11238
318 1 1 0 1 -3.5079 17.4533 9.7929
319 1 1 0 1 -5.71675 15.4291 12.3971
320 1 1 0 1 0.0441512 19.3618 14.0766
321 1 1 0 1 -0.807244 12.7615 12.9609
322 1 1 0 1 0.83202 6.82735 12.4177
323 1 1 0 1 -4.17554 10.6754 9.32872
324 1 1 0 1 -3.38748 11.4932 9.61052
325 1 1 0 1 -3.39034 14.6422 14.0082
326 1 1 0 1 -6.70389 14.868 20.6101
327 1 1 0 1 -4.8369 14.3087 17.5255
328 1 1 0 1 -4.84122 14.6881 18.5729
329 1 1 0 1 0.555658 12.5938 20.8687
330 1 1 0 1 -0.500784 14.112 24.3061
331 1 1 0 1 -3.73323 17.5181 -0.368608
332 1 1 0 1 -0.0660772 17.195 2.53081
333 1 1 0 1 -1.50827 15.6267 2.44449
334 1 1 0 1 -4.05928 15.4908 4.37083
335 1 1 0 1 -1.42636 16.5969 7.10532
336 1 1 0 1 -8.21572 14.6139 7.111
337 1 1 0 1 -2.45591 9.46563 7.67608
338 1 1 0 1 -4.43829 12.2188 7.73136
339 1 1 0 1 -2.71997 15.2575 7.84031
340 1 1 0 1 -1.50847 13.1842 8.66352
341 1 1 0 1 -2.18849 9.9579 8.70979
342 1 1 0 1 -1.65746 17.313 13.8623
343 1 1 0 1 -4.90831 12.5341 8.87933
344 1 1 0 1 -5.48981 14.8375 14.0994
345 1 1 0 1 -3.06496 14.7273 16.0385
346 1 1 0 1 3.94685 17.4682 16.8748
347 1 1 0 1 -4.29858 13.2454 17.5672
348 1 1 0 1 -3.17736 15.4258 15.1276
349 1 1 0 1 -0.477262 17.2735 16.9481
350 1 1 0 1 -2.23658 13.9561 18.4053
351 1 1 0 1 -6.69489 14.173 18.5092
352 1 1 0 1 -1.58406 16.3323 22.2805
353 1 1 0 1 -3.20166 14.2086 5.93982
354 1 1 0 1 -0.771586 17.5186 3.32059
355 1 1 0 1 -5.16044 14.5111 11.3165
356 1 1 0 1 -6.18227 10.4227 3.9426
357 1 1 0 1 -1.76215 15.9477 4.08877
358 1 1 0 1 -1.58278 13.4069 5.18578
359 1 1 0 1 -3.61788 15.3337 6.20446
360 1 1 0 1 -2.66155 13.5107 8.50509
361 1 1 0 1 -5.82954 14.8253 10.5786
362 1 1 0 1 -1.527 16.6239 9.48082
363 1 1 0 1 -2.6622 16.5435 9.70087
364 1 1 0 1 -2.12488 16.7365 11.0259
365 1 1 0 1 -3.03395 10.1683 7.12249
366 1 1 0 1 -3.9828 15.5792 14.4719
367 1 1 0 1 -3.57185 12.3809 10.4387
368 1 1 0 1 -2.21874 15.3096 16.8397
369 1 1 0 1 -8.81417 14.7786 16.9454
370 1 1 0 1 -2.95916 6.9633 10.6087
371 1 1 0 1 -2.84985 17.4297 20.7894
372 1 1 0 1 -3.30185 13.384 15.4433
373 1 1 0 1 -3.15071 13.8029 20.93
374 1 1 0 1 -1.58239 13.3976 24.9341
375 1 1 0 1 -6.85638 11.6915 -0.496526
376 1 1 0 1 -5.65935 9.1552 5.75887
377 1 1 0 1 -3.95384 16.7173 3.59467
378 1 1 0 1 -3.76197 20.4835 3.29426
379 1 1 0 1 -3.83943 15.4841 2.19422
380 1 1 0 1 -5.88652 15.8676 5.53239
381 1 1 0 1 -3.37035 16.5387 5.35725
382 1 1 0 1 -7.39756 18.0498 10.4658
383 1 1 0 1 -2.50464 18.7085 9.63626
384 1 1 0 1 -2.64669 15.4651 9.77674
385 1 1 0 1 -3.00823 18.5159 11.24
386 1 1 0 1 -1.84739 12.6776 12.3707
387 1 1 0 1 -4.35889 18.1553 12.1763
388 1 1 0 1 -3.71073 18.2902 15.096
389 1 1 0 1 -3.66123 13.772 13.3143
390 1 1 0 1 -0.473337 14.9435 16.6133
391 1 1 0 1 -3.88409 14.3757 15.4134
392 1 1 0 1 -7.13809 12.5425 13.1055
393 1 1 0 1 -3.70265 9.88005 15.0224
394 1 1 0 1 -6.51127 16.3878 19.925
395 1 1 0 1 -7.41127 14.5204 15.4248
396 1 1 0 1 -3.75634 13.1097 21.9771
397 1 1 0 1 -1.29279 17.3378 0.305503
398 1 1 0 1 0.053108 19.2018 0.933634
399 1 1 0 1 -4.2435 13.8551 1.91108
400 1 1 0 1 -6.03676 13.9441 3.79237
401 1 1 0 1 -0.498113 11.5097 6.67295
402 1 1 0 1 -2.14423 19.1801 5.67807
403 1 1 0 1 -0.270728 10.9589 8.21047
404 1 1 0 1 -4.22063 15.9184 5.45897
405 1 1 0 1 -6.63619 16.2544 8.41934
406 1 1 0 1 -3.01923 19.8574 9.54249
407 1 1 0 1 -3.16331 15.9867 8.58715
408 1 1 0 1 -7.25746 16.0617 11.0523
409 1 1 0 1 -4.40154 13.174 14.2737
410 1 1 0 1 -4.35869 14.5246 14.1627
411 1 1 0 1 -0.869361 16.7592 14.3361
412 1 1 0 1 -8.06577 14.4211 11.7568
413 1 1 0 1 -3.66964 16.0838 18.9968
414 1 1 0 1 -4.50099 15.5421 16.7747
415 1 1 0 1 -0.640354 17.1637 17.9381
416 1 1 0 1 -1.08141 13.6224 22.2328
417 1 1 0 1 1.7681 19.021 24.7266
418 1 1 0 1 -1.04555 14.9226 23.5481
419 1 1 0 1 -4.54209 19.0078 3.65183
420 1 1 0 1 -0.923965 23.8524 5.88328
421 1 1 0 1 -2.28114 15.8378 5.84784
422 1 1 0 1 -5.57685 14.5659 5.07006
423 1 1 0 1 -1.29302 21.161 4.01879
424 1 1 0 1 -4.07285 16.8573 6.22772
425 1 1 0 1 -3.12179 19.4014 4.79373
426 1 1 0 1 -3.0981 18.5051 5.68829
427 1 1 0 1 -1.43248 20.3605 7.51032
428 1 1 0 1 -2.77173 23.19 7.60703
429 1 1 0 1 -2.37007 22.2732 10.4073
430 1 1 0 1 0.678329 18.3757 9.6456
431 1 1 0 1 -3.83436 16.3597 13.7003
432 1 1 0 1 -1.29942 19.603 16.4445
433 1 1 0 1 -2.08895 16.378 12.3788
434 1 1 0 1 -5.5461 18.2432 12.4764
435 1 1 0 1 -5.49879 14.9902 16.8957
436 1 1 0 1 -4.82033 20.5703 14.1394
437 1 1 0 1 -2.49444 19.4008 15.7018
438 1 1 0 1 -1.5316 17.0268 16.8626
439 1 1 0 1 -4.99894 18.8731 17.5437
440 1 1 0 1 -3.2165 16.1566 21.3678
441 1 1 0 1 -5.10802 14.8082 1.19577
442 1 1 0 1 -2.45183 18.465 4.43918
443 1 1 0 1 -4.38058 20.9118 2.32772
444 1 1 0 1 0.848946 23.1552 3.45667
445 1 1 0 1 -3.22033 16.2166 4.28252
446 1 1 0 1 -2.4812 10.671 10.5966
447 1 1 0 1 -5.23197 18.7736 8.55703
448 1 1 0 1 -4.78058 14.8236 8.84091
449 1 1 0 1 -2.98597 19.7204 10.7932
450 1 1 0 1 -3.5467 17.7531 11.45
451 1 1 0 1 -4.132 19.3988 9.07815
452 1 1 0 1 -4.90178 18.7193 15.5426
453 1 1 0 1 -5.47379 18.1815 11.3583
454 1 1 0 1 -3.73788 22.0041 14.5749
455 1 1 0 1 -7.00179 6.89057 12.3455
456 1 1 0 1 -7.21073 12.2594 11.7846
457 1 1 0 1 -4.88792 21.6645 14.8585
458 1 1 0 1 -5.75579 17.8314 18.2194
459 1 1 0 1 -3.55987 17.1196 16.7165
460 1 1 0 1 -4.08063 12.7511 18.9477
461 1 1 0 1 -2.80077 20.2102 13.4845
462 1 1 0 1 -0.955793 20.5064 21.4543
463 1 1 0 1 -1.9518 23.8543 -1.88709
464 1 1 0 1 -1.79984 18.2063 -0.896659
465 1 1 0 1 0.990037 22.9771 5.45736
466 1 1 0 1 -0.0459647 22.8765 4.13232
467 1 1 0 1 -4.05396 18.7772 6.20209
468 1 1 0 1 -3.78905 20.8501 5.92944
469 1 1 0 1 -5.87448 17.7507 7.88066
470 1 1 0 1 -4.21929 23.9492 4.46965
471 1 1 0 1 -4.30074 18.5978 7.89567
472 1 1 0 1 -2.43007 24.6708 6.46577
473 1 1 0 1 -2.28425 21.4157 13.5822
474 1 1 0 1 -5.57963 18.8835 13.6562
475 1 1 0 1 -0.467513 22.8804 13.6566
476 1 1 0 1 -3.24435 20.9167 14.4777
477 1 1 0 1 -1.78762 20.8684 15.4686
478 1 1 0 1 -2.74529 20.4034 15.4958
479 1 1 0 1 1.11743 23.1623 16.3734
480 1 1 0 1 -1.43077 22.9299 14.2775
481 1 1 0 1 -1.69637 18.6239 18.5286
482 1 1 0 1 -1.89638 24.0184 19.0519
483 1 1 0 1 -0.856721 19.4231 19.3176
484 1 1 0 1 -1.08745 21.4528 23.2615
485 1 1 0 1 -5.4223 -1.13234 2.12177
486 1 1 0 1 -1.44463 -1.78034 -1.40793
487 1 1 0 1 -3.90303 1.27586 1.60833
488 1 1 0 1 -0.388177 -0.944794 3.40071
489 1 1 0 1 -0.218476 4.82955 6.36318
490 1 1 0 1 -2.46863 2.99722 2.62423
491 1 1 0 1 -1.38897 4.73816 10.1234
492 1 1 0 1 -3.16754 -0.827715 8.63122
493 1 1 0 1 -1.2691 3.14672e-06 10.1134
494 1 1 0 1 -3.89007 1.18934 5.5691
495 1 1 0 1 -3.29974 -0.0190617 10.9797
496 1 1 0 1 0.685413 0.161725 12.3966
497 1 1 0 1 -0.16122 1.08362 10.6857
498 1 1 0 1 -3.27605 0.111433 15.9013
499 1 1 0 1 -2.50563 0.69149 16.1054
500 1 1 0 1 -2.08403 -3.09119 14.6178
501 1 1 0 1 1.83281 -1.86575 11.927
502 1 1 0 1 -1.54028 -2.24415 17.5537
503 1 1 0 1 -0.936475 1.46207 20.0332
504 1 1 0 1 -2.54174 -2.10326 17.8435
505 1 1 0 1 -3.34219 -0.145882 17.3582
506 1 1 0 1 -6.01455 0.970952 21.9791
507 1 1 0 1 -2.07734 2.01268 -0.391635
508 1 1 0 1 -1.64695 0.294262 0.563825
509 1 1 0 1 -0.87852 5.12943 -1.28279
510 1 1 0 1 -1.03911 0.386942 2.03453
511 1 1 0 1 -0.448864 4.8927 4.8924
512 1 1 0 1 0.47064 6.16313 6.04442
513 1 1 0 1 0.449802 1.96603 4.80602
514 1 1 0 1 -3.07198 2.35553 5.28327
515 1 1 0 1 -0.239101 3.30014 6.60431
516 1 1 0 1 -2.83983 1.82769 8.56056
517 1 1 0 1 0.300418 3.58082 9.4139
518 1 1 0 1 0.640845 1.94437 12.3585
519 1 1 0 1 -2.77692 -0.5435 15.2591
520 1 1 0 1 -2.13451 -0.191917 12.2178
521 1 1 0 1 1.34892 1.0302 12.1988
522 1 1 0 1 0.177455 2.53935 15.2166
523 1 1 0 1 -1.1467 1.41213 17.2913
524 1 1 0 1 -1.21082 0.995901 18.278
525 1 1 0 1 -4.88591 1.35236 19.7644
526 1 1 0 1 0.22835 -2.95089 18.9069
527 1 1 0 1 1.88711 0.438575 20.6314
528 1 1 0 1 -0.897465 2.65296 24.0997
529 1 1 0 1 0.380231 5.16729 2.94769
530 1 1 0 1 -2.97373 0.173815 -3.11683
531 1 1 0 1 -1.77645 4.49241 -0.11125
532 1 1 0 1 -3.63414 0.00340633 -0.380444
533 1 1 0 1 0.528692 2.85902 2.0501
534 1 1 0 1 -0.949961 3.84475 1.86375
535 1 1 0 1 0.387282 3.20154 4.87554
536 1 1 0 1 -2.35684 5.67762 5.45695
537 1 1 0 1 -4.56555 2.43906 8.81784
538 1 1 0 1 -4.54386 0.958297 6.92655
539 1 1 0 1 -3.4456 3.9421 13.3188
540 1 1 0 1 -0.271975 1.56462 13.0076
541 1 1 0 1 -3.78599 8.01726 15.3285
542 1 1 0 1 -0.875836 2.55837 13.0894
543 1 1 0 1 -3.04586 2.94536 15.6058
544 1 1 0 1 1.14225 3.34081 16.4813
545 1 1 0 1 -1.57943 2.44031 17.4407
546 1 1 0 1 -0.538673 -0.25461 15.2568
547 1 1 0 1 -3.45203 1.70889 17.8083
548 1 1 0 1 -2.69365 2.67483 19.698
549 1 1 0 1 -0.0858101 2.83367 22.1694
550 1 1 0 1 -0.387933 1.21649 22.5755
551 1 1 0 1 -1.77859 5.80871 1.7477
552 1 1 0 1 -2.73517 4.39997 -0.9953
553 1 1 0 1 -1.62883 4.813 2.11598
554 1 1 0 1 -0.817113 5.61076 1.55885
555 1 1 0 1 -3.93488 4.44794 5.05168
556 1 1 0 1 -2.04556 2.34627 3.35258
557 1 1 0 1 -0.514755 6.53477 7.82489
558 1 1 0 1 -3.24901 2.7226 9.31749
559 1 1 0 1 -2.02967 3.4217 10.3753
560 1 1 0 1 -3.39032 0.624621 6.52454
561 1 1 0 1 -1.83277 -0.122186 14.968
562 1 1 0 1 -1.48934 5.64305 12.0405
563 1 1 0 1 -2.30679 4.68256 11.8552
564 1 1 0 1 -2.66479 2.44107 14.0327
565 1 1 0 1 -0.0895331 4.70495 16.2284
566 1 1 0 1 1.59531 2.71333 15.2759
567 1 1 0 1 1.49778 6.347 16.645
568 1 1 0 1 0.53673 3.05089 14.3468
569 1 1 0 1 -0.209925 2.71271 18.4699
570 1 1 0 1 -2.74882 0.693477 21.8812
571 1 1 0 1 1.979 1.2494 21.648
572 1 1 0 1 2.09117 2.76993 21.4358
573 1 1 0 1 1.20646 5.8243 -0.277047
574 1 1 0 1 -2.71205 3.93012 4.71438
575 1 1 0 1 -2.86379 2.92876 0.397532
576 1 1 0 1 -3.54581 6.08535 2.53296
577 1 1 0 1 -1.19131 4.04094 2.96845
578 1 1 0 1 -5.17916 5.82537 4.11535
579 1 1 0 1 -2.63033 7.4615 7.04885
580 1 1 0 1 -2.30525 4.70873 8.09165
581 1 1 0 1 -5.33052 8.88965 9.76653
582 1 1 0 1 1.42131 4.17822 8.61537
583 1 1 0 1 -3.2907 3.7929 9.55768
584 1 1 0 1 -4.01643 5.85838 12.1598
585 1 1 0 1 -1.30661 6.39026 16.3607
586 1 1 0 1 -2.0703 11.098 16.0832
587 1 1 0 1 -4.82157 9.54105 11.5179
588 1 1 0 1 -5.3804 4.27239 14.9578
589 1 1 0 1 -3.59358 4.53952 21.5936
590 1 1 0 1 0.290595 4.01075 22.6526
591 1 1 0 1 -3.20822 4.51486 17.0098
592 1 1 0 1 -0.502762 2.20906 21.2639
593 1 1 0 1 -1.36392 3.40716 18.0276
594 1 1 0 1 -4.14885 2.08762 21.3095
595 1 1 0 1 -1.45209 3.26673 -1.87023
596 1 1 0 1 -4.83381 7.21054 2.56478
597 1 1 0 1 -3.05472 1.06313 3.5524
598 1 1 0 1 3.52492 4.25809 2.50156
599 1 1 0 1 1.81461 3.41415 3.34084
600 1 1 0 1 0.593096 6.06107 3.43322
601 1 1 0 1 -4.53552 6.27137 7.31381
602 1 1 0 1 0.993686 5.58822 7.89894
603 1 1 0 1 2.01125 3.012 11.2173
604 1 1 0 1 3.15695 6.32842 10.4815
605 1 1 0 1 1.37234 6.16053 11.4059
606 1 1 0 1 -0.400892 2.09881 14.2541
607 1 1 0 1 -0.0149964 8.7022 10.8131
608 1 1 0 1 -2.72387 4.19696 10.7965
609 1 1 0 1 2.46921 8.17607 12.4863
610 1 1 0 1 0.325168 5.13965 15.2412
611 1 1 0 1 -1.95681 1.8178 13.6263
612 1 1 0 1 -1.43631 6.00484 19.0255
613 1 1 0 1 -0.480049 3.81655 19.865
614 1 1 0 1 -0.428938 3.70227 18.1804
615 1 1 0 1 -4.24838 6.19945 20.4874
616 1 1 0 1 -0.364892 5.19731 18.0302
617 1 1 0 1 2.11083 4.55369 0.434737
618 1 1 0 1 -7.59307 5.16022 -1.48254
619 1 1 0 1 -4.16592 9.25126 2.79163
620 1 1 0 1 -1.65497 6.53777 5.77343
621 1 1 0 1 -4.15362 1.34767 3.2122
622 1 1 0 1 -3.45243 6.98242 7.83571
623 1 1 0 1 -5.62228 4.10744 1.92187
624 1 1 0 1 0.492469 4.24864 4.78763
625 1 1 0 1 -3.17273 8.37679 10.3095
626 1 1 0 1 -3.81501 4.30513 10.6433
627 1 1 0 1 -4.30024 4.72015 15.6798
628 1 1 0 1 1.18124 5.34397 6.23169
629 1 1 0 1 -2.56678 8.32301 12.8493
630 1 1 0 1 -0.0675879 7.49531 14.1238
631 1 1 0 1 -5.85297 11.5307 10.3874
632 1 1 0 1 0.15821 4.21445 14.6789
633 1 1 0 1 -6.30018 11.8174 16.5396
634 1 1 0 1 -1.69888 5.81481 20.1872
635 1 1 0 1 -4.55752 6.42425 18.324
636 1 1 0 1 -1.35547 5.36169 16.9886
637 1 1 0 1 -5.08345 2.70583 22.1986
638 1 1 0 1 -1.12808 8.08451 22.1748
639 1 1 0 1 -1.36939 3.15238 1.03677
640 1 1 0 1 0.280174 7.53472 -1.10623
641 1 1 0 1 -1.89583 4.73358 3.24454
642 1 1 0 1 -3.53559 5.55194 0.487879
643 1 1 0 1 -2.2675 8.31801 2.45886
644 1 1 0 1 -3.38652 6.12128 5.93561
645 1 1 0 1 -0.935398 6.11593 4.73786
646 1 1 0 1 1.18844 7.26699 8.27847
647 1 1 0 1 -1.54536 9.2953 2.6452
648 1 1 0 1 -3.11576 9.39712 9.5277
649 1 1 0 1 -0.869223 7.00974 9.58643
650 1 1 0 1 3.53101 6.71677 12.9059
651 1 1 0 1 -0.0309039 8.65115 12.1552
652 1 1 0 1 0.574438 8.99881 16.1314
653 1 1 0 1 -2.13371 15.0644 13.0903
654 1 1 0 1 0.311316 7.99013 17.8
655 1 1 0 1 -1.69961 8.65446 17.4986
656 1 1 0 1 -3.3347 6.73193 20.0688
657 1 1 0 1 0.896711 5.18877 16.309
658 1 1 0 1 -0.0512834 7.06825 21.8419
659 1 1 0 1 0.793119 5.50274 18.3801
660 1 1 0 1 -1.88347 7.44393 21.9719
661 1 1 0 1 -3.81894 7.14685 2.505
662 1 1 0 1 -0.992379 8.3508 -2.23082
663 1 1 0 1 -1.36471 5.40767 0.649147
664 1 1 0 1 -2.44982 9.57977 4.38027
665 1 1 0 1 -3.40694 5.96086 4.88555
666 1 1 0 1 -3.46441 4.64623 8.4389
667 1 1 0 1 -5.98145 6.64122 4.05537
668 1 1 0 1 -3.41629 5.68962 8.73767
669 1 1 0 1 1.82284 9.3016 6.11033
670 1 1 0 1 0.0903069 8.17069 8.67844
671 1 1 0 1 0.542286 5.2357 8.83246
672 1 1 0 1 -1.09304 10.2116 14.1805
673 1 1 0 1 -3.60043 8.73919 12.8128
674 1 1 0 1 2.02219 9.01074 17.7052
675 1 1 0 1 -1.77938 10.1073 15.9205
676 1 1 0 1 -4.52071 9.71575 15.672
677 1 1 0 1 -1.95904 10.9912 17.9882
678 1 1 0 1 -0.402709 5.61017 16.7133
679 1 1 0 1 -2.06592 9.30654 18.8644
680 1 1 0 1 -2.20346 8.28224 18.4544
681 1 1 0 1 1.02426 9.07814 20.9089
682 1 1 0 1 -0.026172 5.43135 21.3888
683 1 1 0 1 -3.23978 10.4841 2.64989
684 1 1 0 1 -1.89787 7.77675 3.17592
685 1 1 0 1 -1.97603 11.5622 5.07439
686 1 1 0 1 -0.777415 7.93117 3.84486
687 1 1 0 1 -2.89777 11.9474 3.27235
688 1 1 0 1 -4.07733 12.218 6.60737
689 1 1 0 1 -0.294595 9.09599 6.16752
690 1 1 0 1 -0.913444 7.78913 8.13364
691 1 1 0 1 2.1109 7.86673 8.94418
692 1 1 0 1 0.98236 10.3603 11.2731
693 1 1 0 1 -2.35927 7.37224 17.5946
694 1 1 0 1 -2.29071 10.4862 14.2993
695 1 1 0 1 -0.253032 8.29034 13.2469
696 1 1 0 1 1.15397 9.92371 17.2696
697 1 1 0 1 -0.049344 9.65828 17.1931
698 1 1 0 1 -5.1424 10.347 18.153
699 1 1 0 1 -3.33415 9.33285 20.6078
700 1 1 0 1 -3.35427 15.5811 16.9065
701 1 1 0 1 -4.70951 11.194 18.4352
702 1 1 0 1 -1.87242 9.67203 17.7894
703 1 1 0 1 0.500754 9.59331 18.4469
704 1 1 0 1 -1.87192 14.598 21.3489
705 1 1 0 1 -0.0819384 8.56852 0.772797
706 1 1 0 1 -4.22449 8.81804 1.83706
707 1 1 0 1 -2.26647 13.2885 0.814739
708 1 1 0 1 0.876959 9.92968 0.802297
709 1 1 0 1 -2.20697 10.18 2.90096
710 1 1 0 1 -2.85541 10.8899 6.48853
711 1 1 0 1 -0.999095 10.4839 6.72479
712 1 1 0 1 -2.70792 11.6416 7.33822
713 1 1 0 1 -0.455166 9.43468 7.25951
714 1 1 0 1 0.432942 10.9847 7.48391
715 1 1 0 1 -2.79731 9.51059 12.5723
716 1 1 0 1 -2.27226 14.4791 14.1455
717 1 1 0 1 -1.39804 13.1853 17.0163
718 1 1 0 1 -1.29342 12.7436 15.2624
719 1 1 0 1 -0.478594 9.86659 18.17
720 1 1 0 1 -2.1973 11.5511 17.0781
721 1 1 0 1 -2.56348 11.0653 19.1547
722 1 1 0 1 1.20689 11.6457 18.6611
723 1 1 0 1 -0.648792 9.40238 19.2909
724 1 1 0 1 -1.25891 14.2465 18.2738
725 1 1 0 1 -0.820507 11.5562 20.3899
726 1 1 0 1 -2.29653 11.7355 20.3081
727 1 1 0 1 -1.42663 12.1413 -0.325182
728 1 1 0 1 -1.44876 9.13848 -0.785587
729 1 1 0 1 -5.45457 10.5389 -0.714201
730 1 1 0 1 -0.965179 10.389 0.450832
731 1 1 0 1 -2.24267 9.01872 1.47308
732 1 1 0 1 -3.27678 9.85164 1.10979
733 1 1 0 1 -1.344 9.69563 4.20174
734 1 1 0 1 -0.728376 8.84098 8.30199
735 1 1 0 1 -0.406188 13.1378 5.02059
736 1 1 0 1 -2.59268 11.9211 6.17107
737 1 1 0 1 -1.569 10.2838 11.7242
738 1 1 0 1 4.47572 13.7712 9.61232
739 1 1 0 1 -1.64255 8.74222 13.1579
740 1 1 0 1 -2.24535 12.8254 17.6482
741 1 1 0 1 0.0607849 11.5484 14.9706
742 1 1 0 1 -3.44814 9.84128 19.218
743 1 1 0 1 -0.836756 10.8432 17.8735
744 1 1 0 1 -1.95673 10.3553 21.8516
745 1 1 0 1 2.31823 10.806 19.0857
746 1 1 0 1 -2.83954 11.4117 21.6088
747 1 1 0 1 -0.72336 10.8105 21.5146
748 1 1 0 1 -1.58959 12.6392 20.5461
749 1 1 0 1 -2.80699 12.4447 4.97288
750 1 1 0 1 0.87054 10.3545 2.17368
751 1 1 0 1 -1.87739 12.5691 3.60181
752 1 1 0 1 -3.59429 14.6916 4.26552
753 1 1 0 1 0.439564 12.4697 4.65256
754 1 1 0 1 -1.97599 12.2107 0.66706
755 1 1 0 1 -0.461587 11.9694 5.66045
756 1 1 0 1 -1.44175 13.1365 6.56106
757 1 1 0 1 -2.49564 9.65792 11.1631
758 1 1 0 1 -0.0889464 8.1282 7.41869
759 1 1 0 1 -3.30882 10.1268 10.4158
760 1 1 0 1 -0.757803 10.1755 11.0637
761 1 1 0 1 1.39757 11.6403 14.8781
762 1 1 0 1 0.588681 13.7274 14.3361
763 1 1 0 1 -1.17394 14.3651 17.035
764 1 1 0 1 -0.660674 13.8374 15.2509
765 1 1 0 1 -3.21471 13.5741 19.3018
766 1 1 0 1 -0.144758 12.9235 16.9824
767 1 1 0 1 -1.53724 14.9714 19.1072
768 1 1 0 1 0.156845 12.0004 19.6744
769 1 1 0 1 0.151362 10.4631 20.6512
770 1 1 0 1 0.585882 13.9056 22.1475
771 1 1 0 1 -0.675711 14.6683 0.247756
772 1 1 0 1 -0.917533 12.0618 4.67544
773 1 1 0 1 -1.26046 12.4875 2.1168
774 1 1 0 1 -0.0470678 14.5217 6.35632
775 1 1 0 1 -2.0464 14.7623 2.91086
776 1 1 0 1 -2.69962 10.6949 9.56259
777 1 1 0 1 -1.61442 16.6398 5.96466
778 1 1 0 1 -3.73576 11.3058 8.27679
779 1 1 0 1 -0.619465 13.1401 11.4548
780 1 1 0 1 -0.131742 13.5806 12.6452
781 1 1 0 1 0.407226 10.5136 12.5192
782 1 1 0 1 -0.333032 12.498 14.683
783 1 1 0 1 -2.67086 16.5767 15.3191
784 1 1 0 1 -0.420503 14.405 13.8704
785 1 1 0 1 -1.28155 15.0297 15.7378
786 1 1 0 1 -1.18582 15.787 16.9759
787 1 1 0 1 0.97254 15.1475 16.5942
788 1 1 0 1 -2.20344 15.4209 15.8056
789 1 1 0 1 -0.327824 13.9365 16.2891
790 1 1 0 1 1.23626 11.3976 22.0373
791 1 1 0 1 -1.6412 10.6302 20.1168
792 1 1 0 1 -1.70977 11.3023 20.9602
793 1 1 0 1 -7.10234 14.1601 0.896538
794 1 1 0 1 1.65974 14.6056 1.93433
795 1 1 0 1 1.65449 17.1843 3.83197
796 1 1 0 1 -1.08597 15.5313 3.55615
797 1 1 0 1 -2.20335 14.3014 5.37164
798 1 1 0 1 -2.44934 16.7983 4.89479
799 1 1 0 1 -2.22036 14.11 7.21256
800 1 1 0 1 -2.498 7.0587 8.08344
801 1 1 0 1 -0.152996 12.07 11.052
802 1 1 0 1 -4.09993 16.3841 9.03132
803 1 1 0 1 -0.614852 13.239 13.8496
804 1 1 0 1 -2.45117 13.9008 11.77
805 1 1 0 1 -1.27199 14.9169 12.6976
806 1 1 0 1 0.50694 10.405 9.71983
807 1 1 0 1 -1.07165 17.6749 15.8009
808 1 1 0 1 -0.575658 17.5327 13.6326