ITEM: TIMESTEP
33000
ITEM: NUMBER OF ATOMS
6752
ITEM: BOX BOUNDS pp pp pp
0.0000000000000000e+00 2.2000000000000000e+01
0.0000000000000000e+00 2.2000000000000000e+01
0.0000000000000000e+00 2.2000000000000000e+01
ITEM: ATOMS id mol type q mass xu yu zu
1 1 1 0 1 -4.49606 -8.33743 6.83466
2 1 1 0 1 -0.530243 4.99482 -6.02161
3 1 1 0 1 -1.01903 2.89951 0.153718
4 1 1 0 1 -10.5495 1.21974 5.33709
5 1 1 0 1 6.15447 4.10798 2.42813
6 1 1 0 1 -16.7748 -1.72423 9.5805
7 1 1 0 1 6.02096 3.96345 4.61321
8 1 1 0 1 2.93608 -4.69847 15.9663
9 1 1 0 1 3.7821 -3.68825 9.53788
10 1 1 0 1 -6.84972 -6.94338 12.7114
11 1 1 0 1 -1.9596 -6.40681 0.311418
12 1 1 0 1 -5.10164 -1.72787 8.88047
13 1 1 0 1 9.60679 2.95984 14.8972
14 1 1 0 1 -5.87691 9.62006 11.2941
15 1 1 0 1 -6.09175 3.7616 9.00524
16 1 1 0 1 -1.93334 -5.07683 16.9425
17 1 1 0 1 -2.98351 -1.00274 14.2661
18 1 1 0 1 -10.0319 -6.79905 25.0693
19 1 1 0 1 -10.8982 4.19414 17.4453
20 1 1 0 1 -7.82716 4.56814 22.0364
21 1 1 0 1 -7.76325 2.24956 18.3868
22 1 1 0 1 0.411919 7.92575 20.1297
23 1 1 0 1 -13.8699 -2.48773 7.65278
24 1 1 0 1 -12.4003 4.83361 1.87516
25 1 1 0 1 0.850968 2.26954 -5.49985
26 1 1 0 1 4.25644 -6.76917 3.95324
27 1 1 0 1 -2.87187 -1.73072 10.4619
28 1 1 0 1 -4.72262 6.87768 -0.486058
29 1 1 0 1 -2.80626 -6.28971 14.9897
30 1 1 0 1 -4.22577 0.545172 20.1104
31 1 1 0 1 -3.54566 11.8375 8.36689
32 1 1 0 1 -6.84573 -2.83782 2.25744
33 1 1 0 1 -9.57429 0.126246 11.0495
34 1 1 0 1 -5.27324 8.89589 9.86212
35 1 1 0 1 1.23813 7.992 15.3992
36 1 1 0 1 2.2393 1.47931 8.94251
37 1 1 0 1 0.242433 1.50742 10.3325
38 1 1 0 1 2.95201 0.807838 24.4493
39 1 1 0 1 -1.44619 4.41482 9.31206
40 1 1 0 1 -2.08889 6.42978 19.0303
41 1 1 0 1 -6.98474 -1.05807 14.537
42 1 1 0 1 -3.72738 2.30963 21.9327
43 1 1 0 1 -5.38183 10.6782 14.3892
44 1 1 0 1 -3.65279 12.7459 17.5983
45 1 1 0 1 -12.6324 6.38721 -0.7825
46 1 1 0 1 -6.71157 3.43609 4.90193
47 1 1 0 1 -7.07672 0.538348 4.83811
48 1 1 0 1 -6.80812 13.0468 -1.41704
49 1 1 0 1 -7.56376 6.71901 3.66499
50 1 1 0 1 -5.32437 9.06481 -0.866529
51 1 1 0 1 -3.03314 -1.91994 1.57889
52 1 1 0 1 1.68 3.20234 14.7219
53 1 1 0 1 -3.45513 -0.717965 2.40012
54 1 1 0 1 -9.36069 -4.44956 22.4546
55 1 1 0 1 -2.63022 1.6836 5.51085
56 1 1 0 1 -5.45604 1.63343 3.9447
57 1 1 0 1 -4.94179 8.78168 13.7524
58 1 1 0 1 -1.94686 9.64117 9.16152
59 1 1 0 1 -5.66293 4.41504 8.22294
60 1 1 0 1 3.68624 2.83799 24.3429
61 1 1 0 1 -6.26646 8.60895 14.5836
62 1 1 0 1 -0.0570287 0.641484 24.6912
63 1 1 0 1 1.96727 8.17154 2.45291
64 1 1 0 1 -0.152793 2.18774 15.8601
65 1 1 0 1 -14.0001 -4.681 19.3319
66 1 1 0 1 -0.864262 7.7852 26.0019
67 1 1 0 1 -11.6168 -4.73863 -3.4594
68 1 1 0 1 -4.32362 4.69167 -13.2451
69 1 1 0 1 -2.23379 8.52768 2.0667
70 1 1 0 1 -0.391684 12.62 0.453079
71 1 1 0 1 2.09745 -0.352282 1.88485
72 1 1 0 1 -10.7716 7.98568 2.48397
73 1 1 0 1 1.83406 1.42929 3.64481
74 1 1 0 1 -4.49253 0.0824164 14.7107
75 1 1 0 1 -2.69644 -1.16117 4.51981
76 1 1 0 1 1.51519 -7.0776 8.90664
77 1 1 0 1 -9.4607 -3.6002 6.23111
78 1 1 0 1 -1.50485 7.00923 8.35264
79 1 1 0 1 -2.48511 5.40315 13.6267
80 1 1 0 1 -0.121133 -6.26111 10.5603
81 1 1 0 1 1.0165 4.07691 14.2739
82 1 1 0 1 -2.96421 -4.61944 12.8621
83 1 1 0 1 -2.58675 -0.110439 17.2495
84 1 1 0 1 -0.267735 6.0216 13.2247
85 1 1 0 1 -2.14007 -4.71842 27.3454
86 1 1 0 1 -0.0121651 -8.01397 16.8501
87 1 1 0 1 -3.15807 5.26268 19.753
88 1 1 0 1 -3.29932 5.73603 15.2925
89 1 1 0 1 -4.83593 9.07474 0.265075
90 1 1 0 1 0.164629 13.1293 12.1679
91 1 1 0 1 -1.3822 -4.39921 11.4742
92 1 1 0 1 5.14923 3.39957 4.11355
93 1 1 0 1 2.8106 6.95312 1.59972
94 1 1 0 1 -2.1864 -8.36469 0.794046
95 1 1 0 1 -2.38123 10.3425 7.10948
96 1 1 0 1 2.95103 2.52442 0.36941
97 1 1 0 1 -11.0116 9.1423 14.4974
98 1 1 0 1 4.64097 6.46253 4.99193
99 1 1 0 1 0.404997 7.51252 2.94391
100 1 1 0 1 -2.57633 2.70723 3.61462
101 1 1 0 1 -6.48131 2.59648 9.46784
102 1 1 0 1 -6.46842 4.68953 9.28579
103 1 1 0 1 -10.5409 10.0909 11.0436
104 1 1 0 1 -5.18941 16.2631 16.0638
105 1 1 0 1 -3.15463 2.45548 0.768051
106 1 1 0 1 -0.882145 3.31953 19.0615
107 1 1 0 1 -7.51666 9.47926 17.3339
108 1 1 0 1 10.695 4.98018 11.3554
109 1 1 0 1 -12.2666 2.73742 23.9354
110 1 1 0 1 -5.50006 2.57711 22.5586
111 1 1 0 1 -7.67438 1.98305 -0.59715
112 1 1 0 1 -5.68907 10.5683 -5.06049
113 1 1 0 1 -1.61891 7.39311 15.1972
114 1 1 0 1 2.81812 7.6729 8.18335
115 1 1 0 1 -5.45736 11.1311 3.59738
116 1 1 0 1 -0.0412842 13.2133 9.15385
117 1 1 0 1 -2.92302 8.18748 2.80712
118 1 1 0 1 -1.43743 7.3457 -0.206937
119 1 1 0 1 -9.84829 9.40454 7.98901
120 1 1 0 1 -1.22126 1.96101 0.494009
121 1 1 0 1 -5.8249 3.42973 -0.234494
122 1 1 0 1 0.679231 7.26015 9.58325
123 1 1 0 1 -6.18925 2.23225 13.2332
124 1 1 0 1 -10.9911 9.74298 17.1538
125 1 1 0 1 -8.08763 5.71449 4.88661
126 1 1 0 1 -6.05646 6.67907 22.1369
127 1 1 0 1 -0.74486 8.20595 15.6761
128 1 1 0 1 -11.4784 9.49248 10.9771
129 1 1 0 1 -5.11798 5.19926 25.9794
130 1 1 0 1 -4.172 3.6315 10.6224
131 1 1 0 1 -10.5562 2.55098 3.65578
132 1 1 0 1 -9.79629 2.8902 23.2201
133 1 1 0 1 5.00967 6.39903 3.19066
134 1 1 0 1 -8.55488 11.5057 4.16747
135 1 1 0 1 -5.99355 2.42428 2.00712
136 1 1 0 1 -1.07514 17.795 2.33571
137 1 1 0 1 -7.42014 5.21652 10.9612
138 1 1 0 1 -10.8453 9.76946 19.6035
139 1 1 0 1 1.41639 5.82495 4.73982
140 1 1 0 1 -12.6747 12.7804 -0.736806
141 1 1 0 1 4.66958 3.91783 0.995485
142 1 1 0 1 -1.94967 2.59822 11.2842
143 1 1 0 1 0.119195 -2.31248 9.64531
144 1 1 0 1 -0.192223 -2.23502 8.22734
145 1 1 0 1 -6.91726 8.87514 23.1241
146 1 1 0 1 -8.1618 7.39839 19.823
147 1 1 0 1 3.42575 23.8856 18.0343
148 1 1 0 1 -3.70626 13.1773 11.6579
149 1 1 0 1 -11.9415 -1.88385 20.2775
150 1 1 0 1 -9.2121 8.94478 5.35592
151 1 1 0 1 -5.28124 8.34291 18.2015
152 1 1 0 1 -5.33779 -0.182051 19.5217
153 1 1 0 1 -4.2177 11.5423 20.9862
154 1 1 0 1 -2.58326 5.23009 20.602
155 1 1 0 1 -0.698252 4.72456 -7.80276
156 1 1 0 1 -2.29869 4.21934 -0.659385
157 1 1 0 1 -4.32404 13.7227 3.75421
158 1 1 0 1 -1.37132 15.7141 5.34797
159 1 1 0 1 -7.92617 6.64237 0.487254
160 1 1 0 1 -5.05411 4.29502 3.39847
161 1 1 0 1 0.0493593 12.0291 8.69578
162 1 1 0 1 -5.88872 6.59564 7.2539
163 1 1 0 1 2.12539 10.2532 2.65251
164 1 1 0 1 -7.552 7.29248 13.8011
165 1 1 0 1 -0.292334 0.00366134 13.1839
166 1 1 0 1 -8.22806 13.1388 21.7859
167 1 1 0 1 -7.64387 18.0576 17.8759
168 1 1 0 1 -9.78567 5.10051 21.1508
169 1 1 0 1 -12.7757 13.953 12.455
170 1 1 0 1 3.35492 7.64137 21.8167
171 1 1 0 1 -2.70973 15.7934 26.7282
172 1 1 0 1 1.45086 6.01933 20.7481
173 1 1 0 1 -3.47034 3.41544 15.0878
174 1 1 0 1 7.34187 7.85976 24.7874
175 1 1 0 1 -4.01358 7.02698 16.3736
176 1 1 0 1 3.58932 1.84335 24.6592
177 1 1 0 1 -5.66652 7.0218 -0.855364
178 1 1 0 1 0.877969 20.8531 7.48792
179 1 1 0 1 -5.62007 17.7498 0.678404
180 1 1 0 1 -2.02097 19.3219 -3.68735
181 1 1 0 1 -15.2298 16.7477 1.97258
182 1 1 0 1 -8.65296 15.7015 5.46954
183 1 1 0 1 -5.62357 17.2133 -1.38049
184 1 1 0 1 -2.27917 7.81776 8.50736
185 1 1 0 1 -11.205 -1.01833 11.0003
186 1 1 0 1 -13.1567 13.6393 11.2704
187 1 1 0 1 -5.15634 16.5487 17.4765
188 1 1 0 1 1.72961 -1.43752 13.6664
189 1 1 0 1 -5.90857 15.1063 19.2923
190 1 1 0 1 -5.08036 3.04844 14.3125
191 1 1 0 1 -6.45155 9.65159 28.2772
192 1 1 0 1 -4.85984 4.43217 9.79791
193 1 1 0 1 -0.467876 6.32767 20.8827
194 1 1 0 1 7.31367 8.16705 16.4307
195 1 1 0 1 -5.48257 2.83979 12.386
196 1 1 0 1 -3.14992 9.48791 20.7781
197 1 1 0 1 -4.47842 6.52382 15.4029
198 1 1 0 1 9.11706 6.14559 27.8154
199 1 1 0 1 -3.1609 13.0318 3.68385
200 1 1 0 1 5.78 11.0758 7.91405
201 1 1 0 1 -1.58911 17.3246 -3.23563
202 1 1 0 1 -6.0107 1.82828 3.03772
203 1 1 0 1 -4.48272 8.7287 6.51827
204 1 1 0 1 0.582465 7.36153 14.7006
205 1 1 0 1 5.90455 4.05759 -1.06714
206 1 1 0 1 4.78604 5.57585 6.7527
207 1 1 0 1 -3.54183 7.35268 4.55105
208 1 1 0 1 1.24252 5.78976 5.86435
209 1 1 0 1 1.31782 0.354456 -1.47337
210 1 1 0 1 -3.21325 5.92979 0.488262
211 1 1 0 1 -2.83873 9.31121 4.05761
212 1 1 0 1 -9.3691 10.2096 13.7533
213 1 1 0 1 -2.31559 12.7636 25.0324
214 1 1 0 1 -15.8955 27.3531 16.9824
215 1 1 0 1 -7.49301 16.4159 10.8832
216 1 1 0 1 -9.48785 11.2524 16.2352
217 1 1 0 1 -9.49479 14.4321 26.1474
218 1 1 0 1 1.90553 7.56557 27.7804
219 1 1 0 1 1.87835 12.8268 25.67
220 1 1 0 1 0.564002 17.4049 18.3695
221 1 1 0 1 16.7224 6.36045 -1.96932
222 1 1 0 1 -4.40863 16.149 -2.26377
223 1 1 0 1 -12.5496 11.1782 0.904725
224 1 1 0 1 -4.54888 10.2629 -5.75184
225 1 1 0 1 -11.9288 21.7023 6.07485
226 1 1 0 1 -11.9341 10.2805 6.41556
227 1 1 0 1 -6.10057 20.5666 8.77141
228 1 1 0 1 -8.09343 15.6597 -0.517046
229 1 1 0 1 5.3808 11.3602 11.2371
230 1 1 0 1 -4.58957 13.4505 13.0726
231 1 1 0 1 -2.35442 6.75506 13.3203
232 1 1 0 1 0.955693 -1.17809 8.89166
233 1 1 0 1 -0.519064 10.7117 15.3373
234 1 1 0 1 -11.8773 13.6532 12.0116
235 1 1 0 1 -5.45768 8.28788 16.2215
236 1 1 0 1 -6.35933 5.73302 9.90124
237 1 1 0 1 -13.3038 10.4439 19.6315
238 1 1 0 1 -7.57156 11.9725 17.3611
239 1 1 0 1 -0.496508 7.77425 12.6069
240 1 1 0 1 -5.53016 14.7907 11.2722
241 1 1 0 1 -4.12564 8.16714 16.5799
242 1 1 0 1 -3.96322 -2.87426 21.531
243 1 1 0 1 -3.96039 8.21687 -2.1774
244 1 1 0 1 -3.96352 7.75122 -4.38873
245 1 1 0 1 -8.40338 13.9693 -2.51737
246 1 1 0 1 -1.99119 9.61767 4.70061
247 1 1 0 1 -6.40235 13.7195 10.1084
248 1 1 0 1 -1.10127 -1.22583 5.80514
249 1 1 0 1 -13.0887 9.25417 5.767
250 1 1 0 1 1.66642 8.99769 5.20503
251 1 1 0 1 -3.40312 8.09752 6.82791
252 1 1 0 1 -1.08666 4.10919 6.7689
253 1 1 0 1 1.12506 0.525624 18.5018
254 1 1 0 1 0.470416 9.21161 22.7719
255 1 1 0 1 -7.96183 2.55035 4.76471
256 1 1 0 1 -8.74108 19.2963 9.49282
257 1 1 0 1 1.72311 15.7849 17.2642
258 1 1 0 1 -2.08652 12.0812 21.2363
259 1 1 0 1 -2.80784 14.8825 21.2393
260 1 1 0 1 -1.00667 14.0936 23.7618
261 1 1 0 1 -3.87477 10.9407 15.7077
262 1 1 0 1 -4.95817 7.86706 17.2499
263 1 1 0 1 7.90666 14.1811 16.5107
264 1 1 0 1 -1.70342 15.7686 19.7494
265 1 1 0 1 -5.21757 17.7725 2.0009
266 1 1 0 1 6.36884 20.3314 5.90381
267 1 1 0 1 1.31345 16.6801 10.0859
268 1 1 0 1 -4.58782 2.55505 -1.33793
269 1 1 0 1 -0.993842 5.72171 11.1698
270 1 1 0 1 -6.42924 16.2214 -1.10735
271 1 1 0 1 -5.56242 5.8934 8.93372
272 1 1 0 1 -9.65348 10.9244 17.8442
273 1 1 0 1 -4.22956 12.6956 10.9488
274 1 1 0 1 -14.372 8.74946 7.32018
275 1 1 0 1 -10.4149 0.384541 10.4189
276 1 1 0 1 -1.47637 15.3597 10.7332
277 1 1 0 1 -8.21819 8.83915 11.5359
278 1 1 0 1 3.43044 13.6181 18.2591
279 1 1 0 1 -3.49258 18.7885 14.0172
280 1 1 0 1 -7.20622 14.2111 10.7477
281 1 1 0 1 1.73866 12.5194 26.6504
282 1 1 0 1 -1.76737 13.7216 10.6324
283 1 1 0 1 2.47939 11.0789 17.007
284 1 1 0 1 -4.78395 14.7783 14.637
285 1 1 0 1 -8.22641 3.9018 16.6705
286 1 1 0 1 -7.73685 11.835 23.7333
287 1 1 0 1 -10.1558 20.8769 5.8226
288 1 1 0 1 -4.94474 15.4654 -3.10756
289 1 1 0 1 -10.9642 -0.213941 6.49605
290 1 1 0 1 -4.22415 11.7351 7.50663
291 1 1 0 1 -6.5386 0.351637 13.0659
292 1 1 0 1 -6.28196 12.7418 10.6519
293 1 1 0 1 3.87103 9.43998 7.67084
294 1 1 0 1 -2.09589 9.24354 10.238
295 1 1 0 1 -3.29492 8.31197 4.21073
296 1 1 0 1 -1.66908 16.3895 12.9409
297 1 1 0 1 -8.2615 13.395 7.36645
298 1 1 0 1 -5.78948 7.43 17.4892
299 1 1 0 1 -4.13838 19.6462 12.3764
300 1 1 0 1 1.02021 20.8656 19.9664
301 1 1 0 1 -0.524108 17.6618 18.3792
302 1 1 0 1 -5.02097 16.0995 13.6343
303 1 1 0 1 -11.4005 11.9283 3.80172
304 1 1 0 1 3.92794 2.87798 10.5336
305 1 1 0 1 8.91343 11.9212 24.7085
306 1 1 0 1 -5.6016 13.7123 22.3163
307 1 1 0 1 -1.87857 16.0978 18.6605
308 1 1 0 1 4.80269 28.5642 28.4384
309 1 1 0 1 0.809968 12.9758 5.44102
310 1 1 0 1 0.645968 13.439 8.10002
311 1 1 0 1 -10.4047 8.69736 -4.86415
312 1 1 0 1 -5.23744 7.36622 4.4738
313 1 1 0 1 -12.5989 11.0157 3.23768
314 1 1 0 1 -4.19778 10.0977 2.17231
315 1 1 0 1 3.3505 9.50965 6.49564
316 1 1 0 1 -10.5553 23.694 10.3453
317 1 1 0 1 -4.27064 14.9348 10.6549
318 1 1 0 1 -3.267 18.8877 12.9484
319 1 1 0 1 -3.72249 11.0468 6.0399
320 1 1 0 1 4.08666 19.4497 5.38096
321 1 1 0 1 -2.45998 12.5204 16.1486
322 1 1 0 1 -4.39303 12.7611 21.4286
323 1 1 0 1 -3.48538 14.3251 5.94009
324 1 1 0 1 5.59773 5.37773 4.76294
325 1 1 0 1 0.222189 11.8736 7.35299
326 1 1 0 1 -4.90244 11.8476 18.4715
327 1 1 0 1 -9.42487 15.6395 19.0518
328 1 1 0 1 -0.327895 17.3037 21.6442
329 1 1 0 1 0.980807 16.4883 23.2154
330 1 1 0 1 4.74901 20.5392 22.9178
331 1 1 0 1 -11.0758 13.1111 5.93394
332 1 1 0 1 -3.86783 17.9947 3.61422
333 1 1 0 1 2.78827 7.29559 6.46824
334 1 1 0 1 -7.1072 18.7236 -3.19313
335 1 1 0 1 4.24995 11.733 11.0273
336 1 1 0 1 -14.3161 15.8628 2.6197
337 1 1 0 1 -5.62347 10.3741 2.0494
338 1 1 0 1 -4.23389 12.7217 4.90029
339 1 1 0 1 -9.67103 14.4742 5.42991
340 1 1 0 1 -6.27491 2.1916 8.5097
341 1 1 0 1 -3.23239 11.298 9.16586
342 1 1 0 1 0.301434 16.5619 8.39125
343 1 1 0 1 5.94029 10.1625 5.81752
344 1 1 0 1 -11.9141 10.3959 10.9587
345 1 1 0 1 -4.39733 20.3661 13.3259
346 1 1 0 1 -1.17584 16.2224 20.6438
347 1 1 0 1 2.1951 25.0399 11.8009
348 1 1 0 1 -4.56752 13.735 14.6077
349 1 1 0 1 -0.199407 21.9246 17.1349
350 1 1 0 1 -0.699328 13.1293 15.9784
351 1 1 0 1 -12.7585 17.659 25.7019
352 1 1 0 1 -1.07088 16.3555 29.4648
353 1 1 0 1 -10.9181 17.7662 -5.48946
354 1 1 0 1 -2.20829 16.7673 -0.330326
355 1 1 0 1 -2.26032 8.70347 7.05744
356 1 1 0 1 -6.38146 12.7752 7.73899
357 1 1 0 1 -0.613813 19.828 -0.568903
358 1 1 0 1 -7.51018 17.1828 2.91964
359 1 1 0 1 -10.0324 16.2468 19.6502
360 1 1 0 1 2.91771 11.0937 1.32415
361 1 1 0 1 1.33314 15.2589 11.6421
362 1 1 0 1 -1.83506 15.7199 7.93187
363 1 1 0 1 -2.825 13.7225 9.01003
364 1 1 0 1 6.05228 5.33588 7.59426
365 1 1 0 1 -3.22273 -4.44658 2.37694
366 1 1 0 1 -3.58897 12.8367 13.6393
367 1 1 0 1 -1.83582 4.08794 15.4291
368 1 1 0 1 -2.99431 17.4388 16.8968
369 1 1 0 1 -3.02303 11.0602 10.3533
370 1 1 0 1 -0.641545 4.736 5.96869
371 1 1 0 1 -14.9602 21.4196 26.0707
372 1 1 0 1 -1.111 19.8024 23.0364
373 1 1 0 1 -8.30764 12.9032 18.177
374 1 1 0 1 1.95855 14.3663 28.0463
375 1 1 0 1 -10.7389 1.86398 6.3598
376 1 1 0 1 -9.91053 16.6819 0.24365
377 1 1 0 1 -11.6334 6.37383 -3.33628
378 1 1 0 1 -7.87674 15.9296 9.37768
379 1 1 0 1 0.143063 12.3211 -7.67537
380 1 1 0 1 -4.71521 15.9439 0.0638433
381 1 1 0 1 -9.23815 16.1453 6.48293
382 1 1 0 1 -13.9102 16.5169 14.4823
383 1 1 0 1 -3.47253 22.3455 8.15365
384 1 1 0 1 2.87715 11.4977 10.616
385 1 1 0 1 -12.1793 20.7541 5.45882
386 1 1 0 1 0.0692437 10.718 14.3324
387 1 1 0 1 -5.7804 9.31419 18.4015
388 1 1 0 1 -7.11111 16.1581 16.1108
389 1 1 0 1 -4.43934 20.9963 14.8034
390 1 1 0 1 1.50238 10.9532 22.3046
391 1 1 0 1 -4.15397 26.3319 15.6012
392 1 1 0 1 -6.2939 17.7784 9.75966
393 1 1 0 1 -6.14661 9.98884 9.96091
394 1 1 0 1 -2.15628 14.3118 20.6343
395 1 1 0 1 -8.15003 16.9702 9.20459
396 1 1 0 1 -1.55454 8.33339 21.0768
397 1 1 0 1 -6.58865 17.5448 -3.30888
398 1 1 0 1 -2.44105 28.2704 -1.80008
399 1 1 0 1 -0.961366 15.3753 1.54042
400 1 1 0 1 -4.05826 11.734 4.00594
401 1 1 0 1 -4.97959 9.05128 11.5229
402 1 1 0 1 -7.05285 12.0894 16.538
403 1 1 0 1 -2.06955 14.4516 8.45128
404 1 1 0 1 -2.50795 31.0904 8.1682
405 1 1 0 1 -10.4277 12.7429 6.78319
406 1 1 0 1 -10.9654 20.5442 8.96422
407 1 1 0 1 -1.81265 20.5635 8.83442
408 1 1 0 1 -11.665 21.4185 14.17
409 1 1 0 1 -6.90507 11.1483 12.9749
410 1 1 0 1 -6.2365 5.21088 4.14174
411 1 1 0 1 7.40472 17.1915 3.88828
412 1 1 0 1 -12.9393 13.4621 4.93337
413 1 1 0 1 -13.2721 8.264 20.2708
414 1 1 0 1 -3.46106 12.323 19.4141
415 1 1 0 1 1.19436 15.3023 27.9579
416 1 1 0 1 -3.14368 16.7891 27.0219
417 1 1 0 1 -1.29886 21.0225 25.8025
418 1 1 0 1 1.17006 16.9267 26.6844
419 1 1 0 1 -8.75227 19.1256 1.09627
420 1 1 0 1 -4.7256 23.4092 20.211
421 1 1 0 1 -4.29091 15.8206 7.08849
422 1 1 0 1 -4.40851 6.57922 4.6543
423 1 1 0 1 -0.287253 32.1269 12.9332
424 1 1 0 1 -2.07908 17.9296 16.5935
425 1 1 0 1 -1.97248 11.6549 2.78668
426 1 1 0 1 -9.82397 19.6801 -2.83483
427 1 1 0 1 -4.13654 27.0437 -0.836081
428 1 1 0 1 2.74056 14.5661 2.33766
429 1 1 0 1 -4.48646 27.7365 8.96116
430 1 1 0 1 0.943183 17.1874 7.58159
431 1 1 0 1 -7.81077 10.5689 13.5713
432 1 1 0 1 -3.00649 24.6395 8.30798
433 1 1 0 1 -3.80696 22.5133 15.5421
434 1 1 0 1 -6.39198 6.62407 8.23213
435 1 1 0 1 -4.33877 15.3462 21.1938
436 1 1 0 1 -5.82963 9.53636 12.3231
437 1 1 0 1 2.72772 24.7332 16.8485
438 1 1 0 1 -8.95204 17.1249 20.9725
439 1 1 0 1 -4.85335 23.2829 21.9884
440 1 1 0 1 -3.59052 14.409 23.1072
441 1 1 0 1 -5.03881 20.1326 -5.54262
442 1 1 0 1 -9.81153 20.1236 4.61986
443 1 1 0 1 -3.39012 11.2171 -3.49288
444 1 1 0 1 -0.783523 22.6169 4.68916
445 1 1 0 1 -2.22339 17.76 2.07342
446 1 1 0 1 1.71063 8.78881 14.889
447 1 1 0 1 -1.30188 10.5776 6.66651
448 1 1 0 1 -4.72367 16.4254 10.8911
449 1 1 0 1 0.744586 17.48 12.7493
450 1 1 0 1 -0.00463583 12.8048 24.7443
451 1 1 0 1 -7.97385 13.354 11.8487
452 1 1 0 1 -6.47589 22.1523 19.6036
453 1 1 0 1 -4.11648 14.4181 15.285
454 1 1 0 1 5.21367 18.7163 12.8721
455 1 1 0 1 -3.97786 3.42435 0.13273
456 1 1 0 1 -3.50875 23.0978 19.6378
457 1 1 0 1 -8.82245 19.6193 17.1905
458 1 1 0 1 -11.2734 13.1546 16.6212
459 1 1 0 1 -9.01679 15.6566 14.8486
460 1 1 0 1 -1.99448 16.9567 20.1433
461 1 1 0 1 3.49849 17.2034 9.57367
462 1 1 0 1 9.66006 23.9434 23.2163
463 1 1 0 1 2.95902 21.7104 -0.345446
464 1 1 0 1 0.49035 24.0474 8.55681
465 1 1 0 1 7.40238 25.0884 -3.19345
466 1 1 0 1 -3.77507 27.7803 -1.56811
467 1 1 0 1 -3.46973 21.2413 10.754
468 1 1 0 1 -7.25396 24.1701 2.34217
469 1 1 0 1 0.242494 15.8768 16.109
470 1 1 0 1 -0.562841 19.8093 15.1732
471 1 1 0 1 5.5354 7.6698 6.13735
472 1 1 0 1 6.73974 30.4464 13.3079
473 1 1 0 1 -6.1872 20.6961 12.3741
474 1 1 0 1 2.01058 14.8954 12.3185
475 1 1 0 1 -3.14307 16.6573 14.309
476 1 1 0 1 8.26525 27.842 26.0492
477 1 1 0 1 1.72034 25.3349 12.5771
478 1 1 0 1 7.04222 23.0597 19.4307
479 1 1 0 1 -7.08921 33.8401 8.32333
480 1 1 0 1 7.85314 24.2147 18.5859
481 1 1 0 1 -2.78635 21.772 16.0441
482 1 1 0 1 -2.46847 29.1844 15.926
483 1 1 0 1 2.50516 20.6662 24.0379
484 1 1 0 1 -5.60991 20.6849 18.7973
485 1 1 0 1 -3.53467 -7.27459 2.83781
486 1 1 0 1 -3.79712 6.18023 -9.41328
487 1 1 0 1 -1.86517 2.55687 2.07437
488 1 1 0 1 -7.91465 -6.23315 3.74152
489 1 1 0 1 -0.18375 1.07743 -3.76632
490 1 1 0 1 -8.52242 -3.49038 8.53169
491 1 1 0 1 -3.45416 1.04803 3.79943
492 1 1 0 1 -0.922731 -14.1734 14.4103
493 1 1 0 1 2.84405 -0.518194 15.0073
494 1 1 0 1 -5.58803 3.1955 8.03635
495 1 1 0 1 -4.64543 -0.785833 19.0624
496 1 1 0 1 -0.00998455 8.9663 16.1113
497 1 1 0 1 -1.91531 -6.93454 16.0705
498 1 1 0 1 1.69892 9.72534 9.63904
499 1 1 0 1 1.96832 11.1729 10.1184
500 1 1 0 1 -6.16994 -9.71126 13.9379
501 1 1 0 1 0.266853 0.91019 9.09782
502 1 1 0 1 -1.29443 -9.59887 16.4948
503 1 1 0 1 -4.09289 6.83395 8.25698
504 1 1 0 1 2.09517 -3.6191 9.05592
505 1 1 0 1 -2.36842 -4.14417 11.3308
506 1 1 0 1 -2.85227 9.71603 12.6393
507 1 1 0 1 1.89799 1.96895 -2.9663
508 1 1 0 1 -2.86706 3.49428 2.11678
509 1 1 0 1 -2.81845 4.97202 0.15903
510 1 1 0 1 -15.0125 -11.226 -3.03397
511 1 1 0 1 6.08724 0.668024 8.19291
512 1 1 0 1 -4.81668 18.8506 7.01039
513 1 1 0 1 -8.953 0.893162 7.88592
514 1 1 0 1 -1.77727 -2.10404 -0.904332
515 1 1 0 1 6.44769 9.77866 -3.2784
516 1 1 0 1 -2.52467 11.3787 7.69117
517 1 1 0 1 -3.13595 -1.68883 7.61285
518 1 1 0 1 -1.28285 4.14701 7.79396
519 1 1 0 1 5.44195 1.5033 20.2437
520 1 1 0 1 3.39267 -3.55019 11.8412
521 1 1 0 1 -2.60357 2.3684 9.86208
522 1 1 0 1 -7.01577 3.76129 9.50122
523 1 1 0 1 2.44687 2.24292 12.5926
524 1 1 0 1 1.62451 5.00518 13.2471
525 1 1 0 1 -1.95785 0.527967 23.2035
526 1 1 0 1 -0.0757185 -2.58056 26.7565
527 1 1 0 1 -0.364194 9.38933 20.43
528 1 1 0 1 0.0735862 -0.0791531 26.5429
529 1 1 0 1 7.41751 12.3662 10.4028
530 1 1 0 1 7.30205 -4.38682 -6.47925
531 1 1 0 1 2.55151 13.2077 1.06368
532 1 1 0 1 -1.16132 -5.28991 5.57653
533 1 1 0 1 -6.55084 3.24806 -2.87469
534 1 1 0 1 -4.39147 1.30384 3.00349
535 1 1 0 1 0.892004 9.80748 -0.198126
536 1 1 0 1 -8.78173 15.0231 -2.49728
537 1 1 0 1 0.669084 6.60269 12.8378
538 1 1 0 1 -0.865742 1.57455 11.457
539 1 1 0 1 2.61061 9.39046 4.50594
540 1 1 0 1 0.425869 8.51735 9.74189
541 1 1 0 1 -5.17694 5.82149 10.4843
542 1 1 0 1 -1.465 5.87393 12.0338
543 1 1 0 1 -1.01943 11.3691 3.18381
544 1 1 0 1 3.58108 8.85533 9.85034
545 1 1 0 1 -1.26042 9.5359 11.0098
546 1 1 0 1 0.346851 -0.136232 11.1326
547 1 1 0 1 -2.79707 -2.15748 17.6062
548 1 1 0 1 6.19353 7.08357 26.3877
549 1 1 0 1 1.00791 2.10521 27.3979
550 1 1 0 1 -4.98653 9.29219 26.3241
551 1 1 0 1 -6.30496 2.70555 -7.61485
552 1 1 0 1 -8.59762 0.678696 -5.32477
553 1 1 0 1 -0.0304673 8.49882 0.240574
554 1 1 0 1 1.83471 5.23626 0.252913
555 1 1 0 1 -1.40304 6.69502 -7.69916
556 1 1 0 1 -2.62344 1.86656 2.65692
557 1 1 0 1 3.69225 9.39435 1.30977
558 1 1 0 1 5.73955 5.1389 5.90921
559 1 1 0 1 0.424028 -6.23485 11.5263
560 1 1 0 1 -4.34384 -4.00058 -2.60627
561 1 1 0 1 2.38596 4.20383 13.5272
562 1 1 0 1 4.15458 4.73584 25.6059
563 1 1 0 1 -0.269113 3.54597 21.4748
564 1 1 0 1 -5.44747 -1.77679 10.2217
565 1 1 0 1 12.1692 7.29056 17.5491
566 1 1 0 1 3.13749 5.69077 7.80986
567 1 1 0 1 -0.956131 4.03399 15.9312
568 1 1 0 1 10.2947 3.89672 14.5279
569 1 1 0 1 2.54002 3.83822 18.7989
570 1 1 0 1 1.80755 8.17963 29.9941
571 1 1 0 1 4.24818 6.43356 21.023
572 1 1 0 1 2.41919 0.327396 20.1737
573 1 1 0 1 -0.0865552 3.36805 -6.14929
574 1 1 0 1 -8.21333 -1.3131 1.53066
575 1 1 0 1 -5.1361 2.18882 -8.92069
576 1 1 0 1 -1.36641 6.70246 -1.97513
577 1 1 0 1 -7.65047 -2.28401 1.5522
578 1 1 0 1 -1.24015 9.24662 8.34192
579 1 1 0 1 -2.96342 6.57698 1.98487
580 1 1 0 1 0.611345 -1.59494 13.803
581 1 1 0 1 -0.352981 8.92255 10.2144
582 1 1 0 1 4.81158 9.3978 7.05875
583 1 1 0 1 -10.5831 14.0872 10.595
584 1 1 0 1 -4.94683 5.6158 12.8884
585 1 1 0 1 -3.15405 -0.515245 12.9094
586 1 1 0 1 2.90738 11.0733 19.1639
587 1 1 0 1 -4.64751 19.9442 15.3418
588 1 1 0 1 -9.35215 5.0755 18.2328
589 1 1 0 1 -4.1227 1.22316 12.8733
590 1 1 0 1 -3.79597 7.00665 13.5513
591 1 1 0 1 -7.33834 5.89836 9.83985
592 1 1 0 1 -5.72064 -2.65494 15.9127
593 1 1 0 1 -3.34692 4.10526 12.4397
594 1 1 0 1 -9.78653 -4.46459 21.5181
595 1 1 0 1 -1.47766 -0.708231 -3.71627
596 1 1 0 1 1.19021 11.9321 0.0967891
597 1 1 0 1 -9.89529 2.16479 4.56067
598 1 1 0 1 4.34871 8.10392 0.506416
599 1 1 0 1 0.97727 11.8136 -0.946729
600 1 1 0 1 -3.64869 2.19124 7.20278
601 1 1 0 1 -7.00948 4.96996 2.34387
602 1 1 0 1 -6.5029 -5.51134 1.24071
603 1 1 0 1 0.743718 -5.49339 17.1678
604 1 1 0 1 15.2698 9.90774 18.3284
605 1 1 0 1 -6.19092 8.59985 2.95857
606 1 1 0 1 -6.0226 -5.30135 15.7362
607 1 1 0 1 -3.32856 6.9535 6.67526
608 1 1 0 1 0.993728 -2.95595 9.77954
609 1 1 0 1 4.08582 9.3237 13.0928
610 1 1 0 1 1.50116 13.027 7.36335
611 1 1 0 1 -3.69926 2.0087 2.27144
612 1 1 0 1 0.359348 5.1684 23.3177
613 1 1 0 1 1.74956 6.18488 16.5478
614 1 1 0 1 -0.512817 10.7139 24.6176
615 1 1 0 1 -16.5794 6.45959 17.7446
616 1 1 0 1 -3.71355 10.5183 20.5438
617 1 1 0 1 -1.60631 1.56334 -3.73408
618 1 1 0 1 -13.3286 1.45239 0.866748
619 1 1 0 1 3.97375 16.2351 0.695944
620 1 1 0 1 3.13408 9.95963 5.57408
621 1 1 0 1 0.849227 7.27571 5.59165
622 1 1 0 1 -8.47907 2.87531 1.72673
623 1 1 0 1 3.30489 5.23602 5.57314
624 1 1 0 1 -3.42655 7.89404 1.34385
625 1 1 0 1 -3.37639 2.18035 3.37313
626 1 1 0 1 -1.12517 1.69987 3.92649
627 1 1 0 1 -8.85022 -4.83065 16.8967
628 1 1 0 1 2.16398 -1.28638 6.99774
629 1 1 0 1 2.12038 10.4409 21.0864
630 1 1 0 1 3.16834 16.7968 20.8321
631 1 1 0 1 1.95165 7.92896 14.0563
632 1 1 0 1 7.85892 8.14374 18.4465
633 1 1 0 1 -5.94213 11.1516 21.3327
634 1 1 0 1 -2.59215 3.70543 14.2058
635 1 1 0 1 3.04201 4.80084 18.5011
636 1 1 0 1 6.70176 0.188991 18.9479
637 1 1 0 1 -9.62307 2.67966 21.5698
638 1 1 0 1 -3.83235 5.1942 24.9381
639 1 1 0 1 -1.24048 -1.25967 11.1052
640 1 1 0 1 -3.92489 16.3169 5.69907
641 1 1 0 1 13.278 9.47028 -4.63507
642 1 1 0 1 1.38474 18.5191 17.2363
643 1 1 0 1 0.657788 9.56666 17.7034
644 1 1 0 1 -0.886498 6.71389 2.79477
645 1 1 0 1 -2.13117 4.67474 4.71224
646 1 1 0 1 2.06702 3.74354 4.65865
647 1 1 0 1 -5.26421 11.7379 1.31424
648 1 1 0 1 -5.13576 10.0633 10.2338
649 1 1 0 1 2.49243 2.93944 1.35579
650 1 1 0 1 1.86155 6.24025 8.75665
651 1 1 0 1 4.0243 7.11235 9.98304
652 1 1 0 1 -1.92978 10.6394 18.9041
653 1 1 0 1 -1.30144 16.4548 10.4438
654 1 1 0 1 -0.997143 8.89258 16.5539
655 1 1 0 1 2.17945 7.08755 2.3068
656 1 1 0 1 -2.96337 3.03228 12.5777
657 1 1 0 1 2.72012 7.32027 15.9304
658 1 1 0 1 -0.27396 10.3778 23.6431
659 1 1 0 1 -9.89441 9.09898 11.2394
660 1 1 0 1 5.76655 7.21096 20.2111
661 1 1 0 1 -0.662699 5.52204 1.66401
662 1 1 0 1 -3.66973 10.9087 2.80933
663 1 1 0 1 -4.8554 7.23919 2.39728
664 1 1 0 1 0.775901 11.2313 6.30289
665 1 1 0 1 -5.95253 -0.0780852 0.77987
666 1 1 0 1 6.97938 9.14268 9.40211
667 1 1 0 1 -1.70445 10.5808 -0.129942
668 1 1 0 1 -6.06512 3.82972 1.49047
669 1 1 0 1 4.98245 1.54707 4.75666
670 1 1 0 1 -2.63434 3.31273 9.31521
671 1 1 0 1 1.26545 0.972381 2.51843
672 1 1 0 1 -2.30208 19.4534 13.071
673 1 1 0 1 -8.70863 17.191 12.3694
674 1 1 0 1 -0.0917327 11.534 17.5048
675 1 1 0 1 0.421326 8.03199 18.7098
676 1 1 0 1 -5.84097 -0.605355 17.1282
677 1 1 0 1 1.7793 2.56657 16.1602
678 1 1 0 1 5.95432 7.43198 18.6867
679 1 1 0 1 -9.70745 6.7943 16.4922
680 1 1 0 1 0.419194 4.89416 13.8983
681 1 1 0 1 -6.67461 8.57539 18.1188
682 1 1 0 1 8.45604 7.57835 24.9076
683 1 1 0 1 2.74884 12.7346 10.2371
684 1 1 0 1 -4.26896 9.05268 -2.61999
685 1 1 0 1 0.567435 11.0355 -0.284565
686 1 1 0 1 -1.81763 7.16965 6.37934
687 1 1 0 1 -0.561759 17.2526 4.70712
688 1 1 0 1 -3.31518 14.7941 9.48465
689 1 1 0 1 -1.93579 3.1499 4.4667
690 1 1 0 1 0.92203 2.95938 13.6352
691 1 1 0 1 1.28616 8.37388 3.23109
692 1 1 0 1 -6.42283 7.7276 8.4732
693 1 1 0 1 -3.78414 6.40221 18.2577
694 1 1 0 1 -9.64663 11.4373 12.1126
695 1 1 0 1 -1.93287 5.88986 17.2943
696 1 1 0 1 -5.9766 8.26597 20.9821
697 1 1 0 1 -3.2934 8.78118 15.7839
698 1 1 0 1 -4.67299 9.85369 12.4035
699 1 1 0 1 6.71733 7.09514 22.817
700 1 1 0 1 2.86211 15.3813 16.983
701 1 1 0 1 -2.11931 9.64134 19.2647
702 1 1 0 1 -0.20452 7.33828 27.2444
703 1 1 0 1 -2.31662 15.9447 16.5571
704 1 1 0 1 8.72595 22.2597 16.5887
705 1 1 0 1 1.07485 8.10886 4.44223
706 1 1 0 1 -1.2053 7.83787 -3.88053
707 1 1 0 1 -2.19905 31.1015 3.33707
708 1 1 0 1 4.49239 3.77519 5.0875
709 1 1 0 1 -9.90718 10.6641 5.50897
710 1 1 0 1 -1.1129 13.5377 -2.76843
711 1 1 0 1 -5.28533 8.7727 2.39206
712 1 1 0 1 -0.11675 10.1952 17.7276
713 1 1 0 1 1.62939 12.8556 1.52288
714 1 1 0 1 -2.09906 13.9079 -2.4523
715 1 1 0 1 -2.23782 13.6495 16.1863
716 1 1 0 1 -1.32688 14.0342 18.2156
717 1 1 0 1 -3.28123 12.4876 21.1745
718 1 1 0 1 -2.592 9.75129 15.3955
719 1 1 0 1 -5.85516 11.3559 13.3252
720 1 1 0 1 -3.48907 12.08 24.0725
721 1 1 0 1 -6.98728 11.218 11.9524
722 1 1 0 1 1.56421 17.2565 27.9348
723 1 1 0 1 -6.48706 9.00479 16.859
724 1 1 0 1 -3.23824 19.8071 22.4876
725 1 1 0 1 1.82588 11.824 23.7497
726 1 1 0 1 -9.18083 18.1685 15.0681
727 1 1 0 1 8.60805 14.6365 3.32172
728 1 1 0 1 -1.23096 20.234 -6.08703
729 1 1 0 1 -1.31024 5.22494 -8.9485
730 1 1 0 1 -5.91418 17.2949 8.48889
731 1 1 0 1 2.9695 21.0407 3.13495
732 1 1 0 1 4.63132 13.9086 8.0681
733 1 1 0 1 -2.95575 9.20812 5.02371
734 1 1 0 1 5.45835 4.21189 1.61337
735 1 1 0 1 -11.9013 14.727 2.02226
736 1 1 0 1 -9.09843 18.5153 0.178787
737 1 1 0 1 0.421352 10.6415 16.8489
738 1 1 0 1 7.47449 12.4144 8.01455
739 1 1 0 1 -5.06626 2.09202 19.4106
740 1 1 0 1 -2.99724 5.77065 17.2264
741 1 1 0 1 -0.73037 8.62068 17.567
742 1 1 0 1 3.95582 6.63995 26.0571
743 1 1 0 1 -6.17805 7.73893 15.3545
744 1 1 0 1 4.71029 15.5259 26.7778
745 1 1 0 1 -2.15503 8.66049 15.3484
746 1 1 0 1 -4.3763 12.7457 18.7917
747 1 1 0 1 3.30522 11.1527 25.9483
748 1 1 0 1 3.68806 11.9487 31.8946
749 1 1 0 1 5.697 10.8234 1.90871
750 1 1 0 1 1.40155 9.73812 13.5173
751 1 1 0 1 -12.1267 15.8581 11.5507
752 1 1 0 1 -5.08195 12.8847 14.3036
753 1 1 0 1 -2.59081 8.78088 14.4946
754 1 1 0 1 4.20943 8.65591 6.65756
755 1 1 0 1 -0.548778 18.8945 1.18784
756 1 1 0 1 -7.32179 19.6217 -1.53932
757 1 1 0 1 -3.65223 7.65182 11.2874
758 1 1 0 1 -2.02952 19.9058 8.06104
759 1 1 0 1 0.15718 15.3923 4.67708
760 1 1 0 1 1.63974 1.30876 16.4274
761 1 1 0 1 -8.99175 17.5264 18.8487
762 1 1 0 1 -7.85256 14.46 4.45775
763 1 1 0 1 9.34505 21.3971 12.7201
764 1 1 0 1 -1.41797 19.6182 12.5752
765 1 1 0 1 -0.522017 12.2035 18.3398
766 1 1 0 1 -5.02903 17.6215 16.424
767 1 1 0 1 -10.9752 13.4466 18.5297
768 1 1 0 1 -8.65389 15.382 24.661
769 1 1 0 1 7.27501 11.0932 20.9874
770 1 1 0 1 -1.22731 17.2896 20.9054
771 1 1 0 1 -1.98467 13.5337 5.42676
772 1 1 0 1 -1.39099 9.58922 13.6643
773 1 1 0 1 -3.64438 9.47349 1.15281
774 1 1 0 1 -2.01731 0.925298 9.56753
775 1 1 0 1 -5.33761 15.1349 -6.0725
776 1 1 0 1 1.40594 9.45971 12.5757
777 1 1 0 1 -0.446488 11.2729 12.2683
778 1 1 0 1 -3.07429 14.751 11.5292
779 1 1 0 1 0.32525 14.2866 24.9719
780 1 1 0 1 -5.62712 19.563 6.75353
781 1 1 0 1 5.9175 20.0082 16.238
782 1 1 0 1 3.07389 21.2876 16.0033
783 1 1 0 1 -4.64184 15.0064 3.94821
784 1 1 0 1 -5.68696 15.6842 22.537
785 1 1 0 1 -5.62577 28.5762 15.2987
786 1 1 0 1 -5.40651 10.3659 18.7354
787 1 1 0 1 3.3038 9.36206 24.2831
788 1 1 0 1 -10.9295 21.3592 15.3904
789 1 1 0 1 -4.85628 15.1603 20.0702
790 1 1 0 1 -1.78564 13.2553 24.1026
791 1 1 0 1 -13.3676 14.4346 18.3823
792 1 1 0 1 -3.23454 9.54711 25.0395
793 1 1 0 1 -9.84317 22.4708 8.16632
794 1 1 0 1 -3.92162 15.1378 5.52709
795 1 1 0 1 5.86296 23.2212 -3.63703
796 1 1 0 1 0.378106 17.9422 11.4569
797 1 1 0 1 -3.88476 20.2017 -0.377718
798 1 1 0 1 1.61577 14.5225 0.0541397
799 1 1 0 1 -2.99319 15.168 6.16686
800 1 1 0 1 6.01233 10.4786 3.62156
801 1 1 0 1 8.55819 11.6866 6.59607
802 1 1 0 1 -3.69348 21.341 7.90211
803 1 1 0 1 2.79963 6.81297 16.8955
804 1 1 0 1 -2.98464 17.3208 9.46975
805 1 1 0 1 -12.9185 16.67 19.5303
806 1 1 0 1 -1.93087 -2.69045 1.51567
807 1 1 0 1 6.49159 18.5464 15.9874
808 1 1 0 1 -2.51062 20.4918 15.0304
809 1 1 0 1 -3.32285 17.6533 11.7035
810 1 1 0 1 0.0716639 17.2773 17.0965