ITEM: TIMESTEP
32000
ITEM: NUMBER OF ATOMS
6752
ITEM: BOX BOUNDS pp pp pp
0.0000000000000000e+00 2.2000000000000000e+01
0.0000000000000000e+00 2.2000000000000000e+01
0.0000000000000000e+00 2.2000000000000000e+01
ITEM: ATOMS id mol type q mass xu yu zu
1 1 1 0 1 -5.45289 -7.83761 4.64347
2 1 1 0 1 -0.804226 5.16954 -5.86327
3 1 1 0 1 -0.984789 0.292136 0.230867
4 1 1 0 1 -9.53509 1.15398 3.97135
5 1 1 0 1 5.69382 5.40852 2.58714
6 1 1 0 1 -16.8202 -2.20384 7.76697
7 1 1 0 1 5.32182 5.63873 5.59039
8 1 1 0 1 3.16694 -5.57942 15.6147
9 1 1 0 1 1.77286 -2.98637 10.1114
10 1 1 0 1 -6.38737 -6.49472 13.4408
11 1 1 0 1 -0.411285 -5.54701 -0.635703
12 1 1 0 1 -3.37557 -3.64337 8.85623
13 1 1 0 1 9.1514 3.57719 12.8147
14 1 1 0 1 -6.53647 10.8596 11.1538
15 1 1 0 1 -6.51924 3.60721 8.45571
16 1 1 0 1 -1.24353 -4.82541 16.1289
17 1 1 0 1 -2.58773 -1.58362 14.1135
18 1 1 0 1 -8.09878 -7.88982 24.3157
19 1 1 0 1 -9.41175 3.94013 17.7379
20 1 1 0 1 -7.86421 3.30121 22.1605
21 1 1 0 1 -6.98191 2.63617 18.4793
22 1 1 0 1 -0.271848 7.47569 20.4403
23 1 1 0 1 -13.046 -2.44252 7.26876
24 1 1 0 1 -11.4751 5.74797 1.93078
25 1 1 0 1 -0.20449 2.4827 -6.68546
26 1 1 0 1 3.98712 -6.96338 4.21416
27 1 1 0 1 -2.76636 -2.43981 10.6405
28 1 1 0 1 -4.90857 5.67629 0.184503
29 1 1 0 1 -0.518543 -4.44704 14.3369
30 1 1 0 1 -3.42021 0.993293 19.9743
31 1 1 0 1 -3.08728 11.6332 8.30429
32 1 1 0 1 -6.15799 -2.95569 4.13816
33 1 1 0 1 -9.93637 -0.14504 11.3485
34 1 1 0 1 -5.14271 9.71203 9.92581
35 1 1 0 1 0.669828 8.24924 14.3901
36 1 1 0 1 4.02238 3.32062 7.19352
37 1 1 0 1 0.721155 1.54138 12.6672
38 1 1 0 1 2.88681 2.09908 25.8576
39 1 1 0 1 -1.78363 5.32559 9.47489
40 1 1 0 1 -1.84583 7.06538 17.7987
41 1 1 0 1 -5.62411 -1.15728 15.0177
42 1 1 0 1 -4.33247 1.54206 21.7785
43 1 1 0 1 -3.79707 9.63139 14.6882
44 1 1 0 1 -4.70791 12.1303 16.4904
45 1 1 0 1 -13.7389 6.13031 -1.40219
46 1 1 0 1 -6.71402 2.56403 5.92925
47 1 1 0 1 -6.95291 0.956867 4.73891
48 1 1 0 1 -5.92805 13.8832 -0.0770636
49 1 1 0 1 -8.11992 6.85059 2.98499
50 1 1 0 1 -5.74214 7.76645 -1.60971
51 1 1 0 1 -1.37021 0.150837 2.59803
52 1 1 0 1 1.69164 2.85625 15.5123
53 1 1 0 1 -2.51821 -0.428619 2.23485
54 1 1 0 1 -9.68379 -5.0184 20.8274
55 1 1 0 1 -3.17508 1.13981 6.61911
56 1 1 0 1 -4.18194 1.4537 4.95948
57 1 1 0 1 -5.40749 10.2896 13.9441
58 1 1 0 1 -2.42857 9.53415 10.6148
59 1 1 0 1 -4.9841 4.20851 7.2197
60 1 1 0 1 2.52954 2.71548 24.746
61 1 1 0 1 -5.20574 8.91401 14.0857
62 1 1 0 1 1.86394 0.775233 23.4239
63 1 1 0 1 1.39851 9.07648 2.32379
64 1 1 0 1 0.427791 2.21424 13.5745
65 1 1 0 1 -13.3123 -5.23862 20.379
66 1 1 0 1 -2.46944 6.18094 25.9511
67 1 1 0 1 -11.1601 -5.24202 -3.80279
68 1 1 0 1 -4.18928 3.66863 -12.5163
69 1 1 0 1 -1.75729 9.33559 2.26999
70 1 1 0 1 0.730955 11.0862 0.89465
71 1 1 0 1 1.96813 0.255815 3.40885
72 1 1 0 1 -10.7068 8.96543 0.657937
73 1 1 0 1 2.58489 -1.21482 3.55237
74 1 1 0 1 -3.41602 0.28102 15.057
75 1 1 0 1 -1.9796 -1.02422 5.42699
76 1 1 0 1 0.66306 -6.71506 9.03587
77 1 1 0 1 -8.76476 -2.87716 6.81303
78 1 1 0 1 -0.609128 4.37014 10.5609
79 1 1 0 1 -1.90123 6.15775 13.4376
80 1 1 0 1 -0.879148 -5.34755 12.2002
81 1 1 0 1 -1.03967 5.36145 14.9114
82 1 1 0 1 -2.48291 -3.22876 13.2279
83 1 1 0 1 -4.06801 1.46347 17.1708
84 1 1 0 1 1.147 6.83403 13.0306
85 1 1 0 1 -2.81136 -4.4812 26.9502
86 1 1 0 1 -0.520955 -7.89487 16.2941
87 1 1 0 1 -2.71522 4.11635 21.8789
88 1 1 0 1 -3.88399 5.64077 15.5576
89 1 1 0 1 -3.94843 8.94642 2.55184
90 1 1 0 1 -0.652889 13.3699 9.60569
91 1 1 0 1 -2.55228 -4.37417 11.3401
92 1 1 0 1 3.87788 4.02204 4.31748
93 1 1 0 1 2.07181 8.20896 1.99069
94 1 1 0 1 -3.13189 -7.56862 1.31779
95 1 1 0 1 -2.56476 11.3121 6.59204
96 1 1 0 1 2.45779 3.9874 0.54732
97 1 1 0 1 -9.09441 7.96528 11.8264
98 1 1 0 1 4.73019 7.84165 6.05286
99 1 1 0 1 -1.15687 8.15904 4.69569
100 1 1 0 1 -1.47736 3.43746 2.83469
101 1 1 0 1 -7.12146 1.65447 8.90539
102 1 1 0 1 -4.51626 4.68182 9.13987
103 1 1 0 1 -10.2975 10.3751 10.491
104 1 1 0 1 -4.43914 15.5774 14.919
105 1 1 0 1 -2.34958 2.75072 2.17698
106 1 1 0 1 0.601273 2.97122 19.0096
107 1 1 0 1 -6.92878 8.96274 16.2276
108 1 1 0 1 9.82841 6.66622 13.8248
109 1 1 0 1 -10.8543 2.82168 22.9583
110 1 1 0 1 -5.0319 2.75446 23.9694
111 1 1 0 1 -6.63454 2.65779 0.334124
112 1 1 0 1 -4.51131 9.89443 -4.74005
113 1 1 0 1 -4.12022 8.12943 16.2175
114 1 1 0 1 3.19852 7.01994 5.74226
115 1 1 0 1 -5.11937 11.6773 2.63899
116 1 1 0 1 -0.909923 14.5133 9.98973
117 1 1 0 1 -2.31441 8.61508 3.77091
118 1 1 0 1 -3.48943 5.90216 1.83998
119 1 1 0 1 -10.0528 8.2184 7.83578
120 1 1 0 1 -0.793113 1.55393 2.36276
121 1 1 0 1 -4.34804 2.89635 1.09162
122 1 1 0 1 -0.798141 6.51942 7.73294
123 1 1 0 1 -6.56373 2.24093 13.6747
124 1 1 0 1 -10.3065 8.85816 15.8033
125 1 1 0 1 -9.47482 6.54782 4.12732
126 1 1 0 1 -6.14971 6.56931 22.7233
127 1 1 0 1 -0.90498 7.95937 15.3751
128 1 1 0 1 -11.0601 10.701 11.2216
129 1 1 0 1 -4.0608 4.46645 26.4476
130 1 1 0 1 -4.6463 6.67433 10.3501
131 1 1 0 1 -11.0347 2.37624 4.89131
132 1 1 0 1 -8.01408 2.59566 25.6051
133 1 1 0 1 4.60216 5.88785 3.38141
134 1 1 0 1 -9.32891 10.169 4.51157
135 1 1 0 1 -5.26324 1.54207 1.59716
136 1 1 0 1 -1.04137 17.2376 2.53538
137 1 1 0 1 -9.16245 5.0163 10.8203
138 1 1 0 1 -9.1051 10.7554 18.9833
139 1 1 0 1 0.677843 5.68623 5.42723
140 1 1 0 1 -12.0812 12.7262 -1.99616
141 1 1 0 1 4.42583 4.83626 1.0948
142 1 1 0 1 -4.08206 3.12956 10.2883
143 1 1 0 1 0.0356805 0.308479 9.41448
144 1 1 0 1 -0.00778462 -1.62703 9.42597
145 1 1 0 1 -6.77417 9.82649 21.0477
146 1 1 0 1 -8.17704 8.23356 20.4425
147 1 1 0 1 2.86734 24.219 17.3452
148 1 1 0 1 -3.38914 13.3155 12.2367
149 1 1 0 1 -12.1624 -0.730539 20.2435
150 1 1 0 1 -9.0613 8.57647 5.49243
151 1 1 0 1 -4.69885 7.10051 17.4243
152 1 1 0 1 -4.45006 0.818821 21.0509
153 1 1 0 1 -4.13264 11.748 21.3647
154 1 1 0 1 -3.05973 6.04278 21.9893
155 1 1 0 1 -1.84426 4.49664 -7.21206
156 1 1 0 1 -1.592 3.72062 -1.02904
157 1 1 0 1 -4.48102 13.4688 3.40944
158 1 1 0 1 -1.50918 15.0353 4.51502
159 1 1 0 1 -7.22202 5.29893 -0.204552
160 1 1 0 1 -4.85545 3.9064 4.01669
161 1 1 0 1 -1.00972 11.3145 7.52836
162 1 1 0 1 -7.48958 7.8528 8.96261
163 1 1 0 1 2.44856 9.41622 3.00221
164 1 1 0 1 -8.09214 7.06999 14.5505
165 1 1 0 1 -1.54071 -0.289894 12.5196
166 1 1 0 1 -6.20479 14.9961 22.2691
167 1 1 0 1 -7.80816 18.1815 17.8671
168 1 1 0 1 -9.16457 6.00579 20.9774
169 1 1 0 1 -11.0448 13.9691 14.3494
170 1 1 0 1 4.86704 7.96547 22.1627
171 1 1 0 1 -3.1707 15.1056 25.3084
172 1 1 0 1 0.647377 6.77728 20.1483
173 1 1 0 1 -4.56802 2.3698 16.8227
174 1 1 0 1 7.45605 7.38363 24.123
175 1 1 0 1 -4.51905 7.14756 16.3102
176 1 1 0 1 1.07208 2.53242 25.174
177 1 1 0 1 -6.20748 7.23772 -0.870029
178 1 1 0 1 0.851516 21.5983 7.88228
179 1 1 0 1 -6.65236 16.1579 1.49957
180 1 1 0 1 -1.85212 19.1062 -3.01158
181 1 1 0 1 -13.414 15.8346 1.74559
182 1 1 0 1 -8.82683 13.7703 6.22012
183 1 1 0 1 -6.0828 17.5474 0.232079
184 1 1 0 1 -0.702411 6.44269 8.92828
185 1 1 0 1 -10.4271 -0.519449 12.2601
186 1 1 0 1 -12.7462 14.5952 12.7734
187 1 1 0 1 -4.96197 16.2816 15.6433
188 1 1 0 1 0.96581 -0.617603 13.8778
189 1 1 0 1 -6.5411 14.2175 17.7974
190 1 1 0 1 -4.55023 2.44012 15.3457
191 1 1 0 1 -4.9562 10.4601 29.7893
192 1 1 0 1 -3.94651 5.8151 9.34262
193 1 1 0 1 -1.65039 5.76285 20.8947
194 1 1 0 1 6.30249 8.52401 16.7334
195 1 1 0 1 -5.25438 3.76981 12.8827
196 1 1 0 1 -4.24189 9.62068 20.4236
197 1 1 0 1 -4.57378 4.37716 16.5977
198 1 1 0 1 8.18347 6.17134 26.418
199 1 1 0 1 -2.20105 12.0456 4.48895
200 1 1 0 1 5.87614 11.5784 8.62005
201 1 1 0 1 -0.683282 18.19 -2.9363
202 1 1 0 1 -5.72954 3.31247 3.22393
203 1 1 0 1 -4.32843 10.6218 6.90114
204 1 1 0 1 1.84525 6.27131 14.2186
205 1 1 0 1 4.56597 2.57687 -0.988337
206 1 1 0 1 4.86847 5.30691 7.60555
207 1 1 0 1 -3.59901 7.85449 2.80003
208 1 1 0 1 0.392554 4.97575 6.42047
209 1 1 0 1 1.68133 0.95291 -0.491205
210 1 1 0 1 -5.28375 5.3505 2.21871
211 1 1 0 1 -2.52783 9.66113 4.07128
212 1 1 0 1 -10.1384 9.89255 13.6953
213 1 1 0 1 -2.7241 13.13 25.8435
214 1 1 0 1 -16.0364 26.9522 16.9813
215 1 1 0 1 -7.67752 15.7116 11.8117
216 1 1 0 1 -9.34523 10.0183 18.1173
217 1 1 0 1 -9.02972 15.5755 26.4041
218 1 1 0 1 0.311603 7.64004 26.3647
219 1 1 0 1 2.41124 11.6886 26.1742
220 1 1 0 1 1.27455 17.5 19.4943
221 1 1 0 1 15.312 6.99428 -2.21461
222 1 1 0 1 -4.48461 16.1347 -1.85995
223 1 1 0 1 -11.3217 10.9251 -0.147002
224 1 1 0 1 -5.20421 10.1851 -5.96223
225 1 1 0 1 -10.3318 20.3081 5.86355
226 1 1 0 1 -11.1988 11.1149 6.41012
227 1 1 0 1 -7.69471 18.0975 7.74229
228 1 1 0 1 -8.61565 15.7602 1.0776
229 1 1 0 1 6.02336 9.59234 10.8867
230 1 1 0 1 -3.92121 13.109 13.1143
231 1 1 0 1 -3.07064 5.40164 12.0839
232 1 1 0 1 0.444072 -1.56782 10.5368
233 1 1 0 1 -1.22558 10.8265 16.2222
234 1 1 0 1 -11.5353 13.6008 12.9155
235 1 1 0 1 -5.03357 7.87684 16.8858
236 1 1 0 1 -5.74268 5.58121 11.0812
237 1 1 0 1 -13.4445 12.482 18.4432
238 1 1 0 1 -7.18935 12.006 15.3379
239 1 1 0 1 -0.405074 8.01993 13.2131
240 1 1 0 1 -5.21859 14.9881 11.443
241 1 1 0 1 -4.61123 8.60328 17.6521
242 1 1 0 1 -3.32632 -0.868849 22.421
243 1 1 0 1 -5.46109 8.67247 -1.96546
244 1 1 0 1 -1.12448 7.82379 -4.9503
245 1 1 0 1 -8.80841 13.7703 -2.14153
246 1 1 0 1 -1.57862 9.53118 3.34355
247 1 1 0 1 -6.46834 13.4815 9.32732
248 1 1 0 1 -0.831961 -2.27986 8.88598
249 1 1 0 1 -12.6371 9.82055 5.57572
250 1 1 0 1 1.78691 9.67029 5.4002
251 1 1 0 1 -3.74441 8.94647 6.9495
252 1 1 0 1 -0.709198 3.96342 7.00251
253 1 1 0 1 0.970063 0.386904 19.2743
254 1 1 0 1 1.13962 9.9019 21.2635
255 1 1 0 1 -8.74875 2.37285 5.38681
256 1 1 0 1 -8.2174 18.8068 9.56987
257 1 1 0 1 2.6037 16.4962 18.047
258 1 1 0 1 0.104945 12.6736 21.4043
259 1 1 0 1 -3.53029 12.8377 21.6327
260 1 1 0 1 -1.71545 14.0077 22.5614
261 1 1 0 1 -5.05694 9.11905 16.6535
262 1 1 0 1 -4.34087 7.823 18.3317
263 1 1 0 1 6.92927 15.5485 15.8371
264 1 1 0 1 -1.81624 15.2792 20.7592
265 1 1 0 1 -5.57722 18.2398 1.35181
266 1 1 0 1 5.8566 20.8618 8.17177
267 1 1 0 1 0.0487578 17.0735 9.32823
268 1 1 0 1 -5.60578 3.08204 -0.857197
269 1 1 0 1 -1.33746 5.88115 11.0933
270 1 1 0 1 -5.90265 16.4323 -1.52132
271 1 1 0 1 -5.08029 5.53097 8.99029
272 1 1 0 1 -8.72039 11.327 17.9275
273 1 1 0 1 -4.50714 15.0214 10.8098
274 1 1 0 1 -13.4346 9.04463 7.34235
275 1 1 0 1 -10.1691 -1.3235 11.0177
276 1 1 0 1 -1.65114 14.7985 10.8487
277 1 1 0 1 -8.63631 9.18035 11.4352
278 1 1 0 1 3.88533 12.3722 18.6769
279 1 1 0 1 -3.4805 18.5816 13.9266
280 1 1 0 1 -8.35984 13.6976 10.1085
281 1 1 0 1 0.227739 12.0725 26.3128
282 1 1 0 1 -1.36898 13.0627 8.98462
283 1 1 0 1 -0.235289 11.6174 15.909
284 1 1 0 1 -6.55007 15.6017 14.5485
285 1 1 0 1 -8.24161 2.86642 16.3089
286 1 1 0 1 -7.52339 11.2786 23.3666
287 1 1 0 1 -9.37217 20.0143 5.15829
288 1 1 0 1 -4.24313 15.5822 -2.96669
289 1 1 0 1 -10.1807 0.609197 5.98814
290 1 1 0 1 -4.0169 12.0156 6.93913
291 1 1 0 1 -6.82848 1.13595 12.2439
292 1 1 0 1 -6.56156 12.6986 9.90995
293 1 1 0 1 3.37188 8.91712 6.33721
294 1 1 0 1 -3.87373 7.96842 10.3355
295 1 1 0 1 -3.8143 7.89938 5.05355
296 1 1 0 1 -2.96302 15.1949 13.0111
297 1 1 0 1 -6.76533 12.4629 7.60135
298 1 1 0 1 -7.36587 6.23658 17.756
299 1 1 0 1 -2.22309 19.8828 13.0192
300 1 1 0 1 1.15453 21.0647 20.0018
301 1 1 0 1 0.357218 18.5318 18.3975
302 1 1 0 1 -3.50918 16.6403 14.1737
303 1 1 0 1 -12.7129 12.6621 4.62153
304 1 1 0 1 3.81645 2.33908 10.8027
305 1 1 0 1 9.20709 9.92018 22.5306
306 1 1 0 1 -5.3557 13.4458 22.8524
307 1 1 0 1 -1.98972 16.2876 20.1414
308 1 1 0 1 3.79927 26.5958 27.4331
309 1 1 0 1 0.17921 12.5548 5.44784
310 1 1 0 1 0.613462 13.186 8.02481
311 1 1 0 1 -12.4121 8.70078 -6.03673
312 1 1 0 1 -6.05875 7.44689 4.58796
313 1 1 0 1 -13.0994 11.5525 4.65448
314 1 1 0 1 -5.02717 9.53542 2.57389
315 1 1 0 1 3.00566 10.4292 6.60294
316 1 1 0 1 -9.87587 22.3887 9.2345
317 1 1 0 1 -3.85101 14.6928 10.0049
318 1 1 0 1 -3.74001 18.4727 12.6449
319 1 1 0 1 -4.11164 10.9152 5.10421
320 1 1 0 1 3.63275 18.0206 5.46026
321 1 1 0 1 -3.4728 10.8185 16.8419
322 1 1 0 1 -5.31918 12.9955 21.6836
323 1 1 0 1 -4.07376 15.1639 5.86314
324 1 1 0 1 4.21417 6.81589 6.84164
325 1 1 0 1 1.09699 10.5279 7.0453
326 1 1 0 1 -2.68909 11.7451 17.5307
327 1 1 0 1 -7.91337 15.5013 20.1313
328 1 1 0 1 0.444379 17.4784 23.4324
329 1 1 0 1 0.407206 15.744 23.2599
330 1 1 0 1 4.86909 21.0162 23.5749
331 1 1 0 1 -10.7468 13.149 5.69001
332 1 1 0 1 -2.15811 18.7022 2.71105
333 1 1 0 1 1.08086 7.47633 5.24481
334 1 1 0 1 -7.75295 17.9684 -3.07644
335 1 1 0 1 3.59285 11.4058 11.1776
336 1 1 0 1 -13.9826 16.9673 2.40548
337 1 1 0 1 -4.68642 10.5192 2.51789
338 1 1 0 1 -4.54336 12.8863 6.32118
339 1 1 0 1 -8.31282 12.845 5.63422
340 1 1 0 1 -6.59054 3.13403 9.57055
341 1 1 0 1 -3.29889 10.2559 8.84638
342 1 1 0 1 -1.15818 17.0948 7.85568
343 1 1 0 1 5.14941 10.1602 5.79231
344 1 1 0 1 -11.8739 10.2829 10.8009
345 1 1 0 1 -5.63503 21.2381 12.2769
346 1 1 0 1 -1.08685 17.3885 21.3948
347 1 1 0 1 2.03722 24.7136 12.2113
348 1 1 0 1 -4.62507 13.7776 13.9054
349 1 1 0 1 0.37275 21.7648 15.8478
350 1 1 0 1 -1.63157 13.9735 16.1937
351 1 1 0 1 -10.9707 18.0017 25.0015
352 1 1 0 1 0.624632 17.5462 29.0943
353 1 1 0 1 -9.65752 18.8431 -4.55525
354 1 1 0 1 -0.793067 16.8853 0.465893
355 1 1 0 1 -2.18126 8.81691 5.64495
356 1 1 0 1 -4.44714 12.8863 7.79891
357 1 1 0 1 0.364233 18.8245 0.000261908
358 1 1 0 1 -7.26486 16.9856 4.8536
359 1 1 0 1 -8.54526 14.9008 19.2509
360 1 1 0 1 1.74856 10.8105 0.826112
361 1 1 0 1 1.37503 15.0086 10.9281
362 1 1 0 1 -1.1371 15.2723 8.07004
363 1 1 0 1 -1.95581 13.9141 9.33733
364 1 1 0 1 6.31451 5.89929 7.76717
365 1 1 0 1 -3.15942 -2.63091 4.59402
366 1 1 0 1 -3.39525 13.4859 14.3024
367 1 1 0 1 -3.14712 4.91876 14.1584
368 1 1 0 1 -2.54526 17.3467 16.7099
369 1 1 0 1 -2.40119 12.6558 9.09135
370 1 1 0 1 -1.50852 3.00802 6.77389
371 1 1 0 1 -13.8455 21.0973 25.7487
372 1 1 0 1 -0.931706 20.0267 23.4843
373 1 1 0 1 -6.89879 12.9831 17.2832
374 1 1 0 1 2.34209 13.72 27.9699
375 1 1 0 1 -10.3003 1.84183 5.67165
376 1 1 0 1 -8.7833 16.1659 -0.262553
377 1 1 0 1 -12.6865 6.17897 -2.16958
378 1 1 0 1 -8.35701 16.2 9.59632
379 1 1 0 1 -1.46318 13.2957 -7.87198
380 1 1 0 1 -5.94126 14.2946 1.04734
381 1 1 0 1 -8.59208 15.647 5.31175
382 1 1 0 1 -13.3783 17.2936 14.6296
383 1 1 0 1 -3.03663 24.0752 7.99681
384 1 1 0 1 2.25353 9.57378 11.8012
385 1 1 0 1 -10.3944 20.9488 5.05625
386 1 1 0 1 -1.55641 10.875 14.4495
387 1 1 0 1 -5.00756 8.83428 18.7315
388 1 1 0 1 -5.99785 16.1431 15.7248
389 1 1 0 1 -3.61305 20.7774 14.0195
390 1 1 0 1 1.69888 12.9306 20.9791
391 1 1 0 1 -5.18293 23.7457 17.5385
392 1 1 0 1 -6.43566 17.9204 9.35528
393 1 1 0 1 -5.53472 10.5996 10.743
394 1 1 0 1 -2.34511 13.6081 20.8399
395 1 1 0 1 -9.53093 17.2244 10.3625
396 1 1 0 1 -1.97619 7.16158 21.6878
397 1 1 0 1 -6.47559 17.5433 -2.72624
398 1 1 0 1 -3.721 26.5134 -3.11462
399 1 1 0 1 -0.91024 14.6185 0.29268
400 1 1 0 1 -3.79584 11.4039 2.82925
401 1 1 0 1 -6.15252 8.34618 11.5511
402 1 1 0 1 -5.07161 12.2943 15.3763
403 1 1 0 1 -1.88373 15.236 9.36881
404 1 1 0 1 -2.7512 31.4233 7.27775
405 1 1 0 1 -11.2666 13.2546 7.27929
406 1 1 0 1 -9.42543 20.6133 8.05384
407 1 1 0 1 -3.1328 19.2913 8.13361
408 1 1 0 1 -11.5675 22.4224 14.4134
409 1 1 0 1 -6.43874 13.2272 13.0556
410 1 1 0 1 -5.63765 4.6667 4.32358
411 1 1 0 1 8.51338 17.7198 3.60026
412 1 1 0 1 -13.7794 12.8782 5.00577
413 1 1 0 1 -14.0762 9.17317 19.8305
414 1 1 0 1 -3.29923 12.5817 20.5256
415 1 1 0 1 1.35717 14.9367 27.1411
416 1 1 0 1 -1.99136 15.8237 27.0481
417 1 1 0 1 0.339418 21.4157 27.0869
418 1 1 0 1 1.6252 16.2312 26.4838
419 1 1 0 1 -8.26524 19.3685 2.29114
420 1 1 0 1 -5.14577 23.6935 21.0348
421 1 1 0 1 -5.19675 15.5393 6.4203
422 1 1 0 1 -4.93837 5.51897 4.5853
423 1 1 0 1 -0.587331 32.5221 12.7198
424 1 1 0 1 -1.86067 16.1249 16.6462
425 1 1 0 1 -0.492633 12.4252 2.57994
426 1 1 0 1 -9.10954 20.3938 -2.5377
427 1 1 0 1 -5.45202 27.2903 -1.9903
428 1 1 0 1 2.70237 13.5959 2.04141
429 1 1 0 1 -3.85493 28.4047 7.70875
430 1 1 0 1 3.25538 16.5308 7.57189
431 1 1 0 1 -8.65335 12.5812 13.6324
432 1 1 0 1 -2.89224 25.9051 8.16
433 1 1 0 1 -4.2563 21.6728 17.0461
434 1 1 0 1 -6.10799 6.63248 9.26969
435 1 1 0 1 -5.20778 15.1338 23.0221
436 1 1 0 1 -6.6442 9.07409 12.1033
437 1 1 0 1 1.11538 23.9539 15.8752
438 1 1 0 1 -9.03968 17.7646 20.3969
439 1 1 0 1 -3.80715 23.1824 22.5547
440 1 1 0 1 -4.82873 14.6111 24.3922
441 1 1 0 1 -3.15739 18.7394 -4.51785
442 1 1 0 1 -8.66926 19.3188 5.47989
443 1 1 0 1 -3.70149 12.6818 -3.36941
444 1 1 0 1 0.442047 22.5161 3.61971
445 1 1 0 1 -2.82574 17.1653 1.16561
446 1 1 0 1 2.99407 8.04711 15.0041
447 1 1 0 1 -2.15115 11.5599 7.61661
448 1 1 0 1 -4.4575 15.5258 9.73952
449 1 1 0 1 1.22871 16.1275 11.6394
450 1 1 0 1 0.295878 13.2139 24.3295
451 1 1 0 1 -6.48304 13.6342 11.5363
452 1 1 0 1 -7.48439 21.1063 18.7835
453 1 1 0 1 -4.87191 13.5342 16.7147
454 1 1 0 1 5.11672 19.3538 14.0614
455 1 1 0 1 -2.09526 1.67015 -0.563091
456 1 1 0 1 -3.07601 23.3563 18.9502
457 1 1 0 1 -7.22473 17.9598 19.7648
458 1 1 0 1 -12.0973 13.9342 15.6138
459 1 1 0 1 -8.86265 15.1438 15.0927
460 1 1 0 1 -2.63404 17.3312 20.4956
461 1 1 0 1 2.34305 18.2453 10.8042
462 1 1 0 1 11.3353 24.3739 20.7289
463 1 1 0 1 3.71402 20.7825 -0.230589
464 1 1 0 1 -2.04247 23.362 9.91265
465 1 1 0 1 7.69283 23.7645 -2.42095
466 1 1 0 1 -3.88636 27.4626 -0.884645
467 1 1 0 1 -3.9947 22.1475 9.20697
468 1 1 0 1 -7.06037 24.4521 3.19427
469 1 1 0 1 -0.151686 15.7067 14.644
470 1 1 0 1 -1.92051 21.0546 14.9565
471 1 1 0 1 5.56136 8.53856 6.73493
472 1 1 0 1 7.31908 30.338 13.4792
473 1 1 0 1 -7.36695 19.9736 11.2635
474 1 1 0 1 1.94253 15.4564 12.2375
475 1 1 0 1 -2.53866 16.782 14.6924
476 1 1 0 1 7.54258 27.6685 25.576
477 1 1 0 1 1.48814 24.5489 13.9919
478 1 1 0 1 6.90417 23.9774 17.2252
479 1 1 0 1 -7.75063 34.3802 8.00589
480 1 1 0 1 6.16246 23.3424 18.5234
481 1 1 0 1 -1.90421 21.562 16.2891
482 1 1 0 1 -1.23148 31.3781 17.1764
483 1 1 0 1 4.23986 20.6599 22.8517
484 1 1 0 1 -5.35218 19.1165 19.8503
485 1 1 0 1 -3.56108 -9.09391 3.14326
486 1 1 0 1 -4.89572 6.86893 -10.0671
487 1 1 0 1 -1.14113 2.53099 1.87459
488 1 1 0 1 -7.1239 -6.25331 3.93942
489 1 1 0 1 0.128928 1.20508 -2.62269
490 1 1 0 1 -9.23589 -2.47652 7.76499
491 1 1 0 1 -2.72842 1.08627 3.35595
492 1 1 0 1 0.516955 -14.3705 13.5142
493 1 1 0 1 3.14939 -0.142468 15.1206
494 1 1 0 1 -5.08228 2.04384 7.28937
495 1 1 0 1 -5.25167 -0.835105 20.133
496 1 1 0 1 0.9614 8.76054 15.8394
497 1 1 0 1 -2.97718 -7.40577 15.628
498 1 1 0 1 2.15673 9.66742 9.6753
499 1 1 0 1 1.39775 10.3326 9.08308
500 1 1 0 1 -5.73964 -8.20423 13.8737
501 1 1 0 1 1.82444 0.52806 9.50565
502 1 1 0 1 -1.54874 -9.2724 17.9292
503 1 1 0 1 -3.44302 6.96592 9.40494
504 1 1 0 1 1.25759 -4.77711 8.72561
505 1 1 0 1 -2.78051 -3.85276 12.3859
506 1 1 0 1 -3.37043 8.1979 11.7715
507 1 1 0 1 1.55248 1.61182 -1.84917
508 1 1 0 1 -1.61953 3.64573 1.48009
509 1 1 0 1 -3.67187 4.37451 1.47379
510 1 1 0 1 -14.8276 -10.4268 -3.35391
511 1 1 0 1 5.53587 0.872173 6.73459
512 1 1 0 1 -4.23121 18.3717 6.08532
513 1 1 0 1 -9.97631 1.76264 7.77925
514 1 1 0 1 -2.37879 -2.46023 -0.124995
515 1 1 0 1 5.81436 9.29319 -3.51837
516 1 1 0 1 -2.87547 12.7611 6.20837
517 1 1 0 1 -3.39497 -2.18667 6.94785
518 1 1 0 1 0.595937 3.83587 7.57337
519 1 1 0 1 5.07344 0.321714 20.4042
520 1 1 0 1 1.09747 -3.75865 11.7709
521 1 1 0 1 -1.44758 3.01736 11.0814
522 1 1 0 1 -6.95435 4.64974 9.79888
523 1 1 0 1 2.71825 1.69178 13.9509
524 1 1 0 1 1.56709 4.09564 13.6877
525 1 1 0 1 -1.85748 0.87467 22.9174
526 1 1 0 1 -0.779747 -3.5331 25.776
527 1 1 0 1 -0.972061 9.27777 20.9327
528 1 1 0 1 1.39403 -0.656291 25.8956
529 1 1 0 1 7.13005 12.4273 11.8892
530 1 1 0 1 6.93138 -4.40961 -6.14911
531 1 1 0 1 3.47251 13.081 1.0975
532 1 1 0 1 -1.17458 -5.84037 7.42854
533 1 1 0 1 -6.05113 2.13708 -3.43434
534 1 1 0 1 -3.73475 1.4739 3.72228
535 1 1 0 1 1.34925 8.86998 0.0642896
536 1 1 0 1 -8.26251 14.2259 -0.342878
537 1 1 0 1 -0.0478684 6.47738 11.6268
538 1 1 0 1 -1.98569 -0.546179 11.4886
539 1 1 0 1 2.17023 8.49353 5.80925
540 1 1 0 1 1.6665 6.9988 9.94127
541 1 1 0 1 -4.86228 7.80687 10.686
542 1 1 0 1 -2.08011 5.62927 11.8861
543 1 1 0 1 -0.806705 11.2749 3.71366
544 1 1 0 1 2.36645 8.08922 8.23944
545 1 1 0 1 -0.0329762 9.03195 10.9873
546 1 1 0 1 0.828593 -1.25834 12.0604
547 1 1 0 1 -2.342 -3.03966 18.1079
548 1 1 0 1 4.0904 7.44585 27.3765
549 1 1 0 1 1.397 2.95453 28.3497
550 1 1 0 1 -6.41178 9.99854 24.9502
551 1 1 0 1 -5.5797 3.17053 -6.71374
552 1 1 0 1 -7.43314 0.749674 -4.72724
553 1 1 0 1 -0.927578 8.14751 0.107885
554 1 1 0 1 1.83032 7.01893 -0.0544448
555 1 1 0 1 -2.08943 7.12893 -8.2993
556 1 1 0 1 -1.84062 2.70629 3.54971
557 1 1 0 1 3.41019 9.70961 0.34855
558 1 1 0 1 4.55192 5.57862 6.49732
559 1 1 0 1 0.758117 -4.98745 11.2801
560 1 1 0 1 -3.30564 -5.27053 -2.47724
561 1 1 0 1 2.04691 5.27285 13.9871
562 1 1 0 1 5.26499 4.94386 25.3464
563 1 1 0 1 -0.0648298 2.45472 21.9182
564 1 1 0 1 -4.42074 -1.93649 9.99539
565 1 1 0 1 11.1829 7.7964 16.8766
566 1 1 0 1 2.90072 5.30454 8.9161
567 1 1 0 1 -2.27714 3.30195 15.6313
568 1 1 0 1 8.44674 3.69349 13.8675
569 1 1 0 1 2.9422 3.13253 16.8728
570 1 1 0 1 0.775831 7.62726 29.5069
571 1 1 0 1 5.57428 7.07226 21.7519
572 1 1 0 1 1.96361 -0.362052 20.9556
573 1 1 0 1 -1.13302 2.65292 -5.67313
574 1 1 0 1 -8.18183 -0.993395 1.59837
575 1 1 0 1 -5.71775 2.9475 -8.68352
576 1 1 0 1 -0.559207 5.50491 -3.2552
577 1 1 0 1 -6.21144 -2.64327 3.02541
578 1 1 0 1 -1.35558 9.1766 8.60202
579 1 1 0 1 -4.72384 6.29687 2.35354
580 1 1 0 1 -0.60854 -0.789979 12.4755
581 1 1 0 1 0.431791 7.90456 9.28899
582 1 1 0 1 2.91287 9.86364 7.66371
583 1 1 0 1 -9.59648 13.9948 11.371
584 1 1 0 1 -5.02758 5.89117 14.4462
585 1 1 0 1 -4.70441 -0.0492277 12.3026
586 1 1 0 1 2.65291 12.6561 17.9175
587 1 1 0 1 -4.39955 19.5384 13.8713
588 1 1 0 1 -8.06083 5.05386 17.6272
589 1 1 0 1 -5.23923 1.39411 14.3693
590 1 1 0 1 -4.42182 5.35519 13.0928
591 1 1 0 1 -7.56499 5.95562 10.8196
592 1 1 0 1 -3.72088 -1.80603 17.0908
593 1 1 0 1 -3.39012 4.01889 13.6149
594 1 1 0 1 -10.5064 -5.26375 21.2881
595 1 1 0 1 -0.929347 -0.220999 -3.29384
596 1 1 0 1 1.92918 11.6964 0.0253834
597 1 1 0 1 -8.83564 0.312698 3.61931
598 1 1 0 1 3.71426 8.65064 -0.119381
599 1 1 0 1 1.5532 10.5834 -1.38173
600 1 1 0 1 -3.34819 3.20212 7.35687
601 1 1 0 1 -6.9558 4.75344 0.608917
602 1 1 0 1 -7.14117 -4.87274 1.9652
603 1 1 0 1 0.416181 -5.03354 17.5523
604 1 1 0 1 15.6296 9.88918 17.8341
605 1 1 0 1 -5.7103 8.75592 3.12121
606 1 1 0 1 -6.23046 -3.23195 15.9034
607 1 1 0 1 -5.08597 8.04921 6.16578
608 1 1 0 1 1.36839 -3.95026 9.74492
609 1 1 0 1 4.50052 8.66811 13.8367
610 1 1 0 1 2.26157 13.0426 7.91273
611 1 1 0 1 -2.80774 3.12929 3.06713
612 1 1 0 1 -0.544084 5.53767 23.5244
613 1 1 0 1 1.56617 5.45036 16.3814
614 1 1 0 1 -0.464815 10.7207 23.4279
615 1 1 0 1 -16.3622 6.21391 17.1313
616 1 1 0 1 -3.06084 11.6888 21.0238
617 1 1 0 1 -0.792452 2.09485 -4.71318
618 1 1 0 1 -13.5208 3.18967 1.62089
619 1 1 0 1 4.09277 17.9497 0.742239
620 1 1 0 1 2.75325 9.14728 5.40987
621 1 1 0 1 -0.642969 7.06855 4.40474
622 1 1 0 1 -7.51222 2.21643 -0.275106
623 1 1 0 1 3.40644 5.12493 4.55319
624 1 1 0 1 -4.11617 7.34787 -0.388736
625 1 1 0 1 -2.10713 1.71851 3.95223
626 1 1 0 1 -1.14919 0.951487 4.20926
627 1 1 0 1 -7.48698 -4.88463 16.7106
628 1 1 0 1 1.95606 -2.30364 7.37384
629 1 1 0 1 1.04866 8.80415 20.4728
630 1 1 0 1 3.7506 15.7713 20.9854
631 1 1 0 1 2.6815 7.92011 13.6341
632 1 1 0 1 7.97378 7.76773 18.4035
633 1 1 0 1 -5.05072 10.055 19.9559
634 1 1 0 1 -2.72264 2.55685 13.7936
635 1 1 0 1 2.5774 3.02189 17.8848
636 1 1 0 1 4.17176 1.10365 18.8284
637 1 1 0 1 -8.12614 3.15043 20.6452
638 1 1 0 1 -2.19613 5.16289 25.557
639 1 1 0 1 -2.1298 -2.34717 9.68433
640 1 1 0 1 -2.51903 16.4029 5.90862
641 1 1 0 1 12.4752 8.85979 -4.07836
642 1 1 0 1 2.16182 18.0959 16.0539
643 1 1 0 1 -0.638084 11.8171 16.9344
644 1 1 0 1 -1.53151 7.03602 2.53309
645 1 1 0 1 -1.38805 4.44156 5.9956
646 1 1 0 1 1.61734 3.18409 5.40303
647 1 1 0 1 -5.45348 11.2023 1.35779
648 1 1 0 1 -4.42544 10.5028 10.9668
649 1 1 0 1 2.33205 3.48965 1.45696
650 1 1 0 1 2.79075 6.33496 9.54098
651 1 1 0 1 5.06926 7.96386 9.31853
652 1 1 0 1 -3.41563 11.3054 19.4241
653 1 1 0 1 -1.61658 17.1107 11.0637
654 1 1 0 1 -2.0399 9.81287 16.1607
655 1 1 0 1 0.857073 7.1288 3.17583
656 1 1 0 1 -3.76044 2.15129 12.1556
657 1 1 0 1 2.81191 7.3757 17.1825
658 1 1 0 1 -1.06282 10.0905 22.7936
659 1 1 0 1 -8.50311 8.76137 12.3426
660 1 1 0 1 5.32623 7.61078 20.5945
661 1 1 0 1 -0.427261 5.40088 2.60016
662 1 1 0 1 -2.42222 12.5666 2.79527
663 1 1 0 1 -5.15421 7.44497 2.05189
664 1 1 0 1 0.0732449 9.26608 7.30993
665 1 1 0 1 -5.49387 0.801675 2.72391
666 1 1 0 1 7.45929 9.00264 9.50965
667 1 1 0 1 -1.9606 9.61999 -0.781085
668 1 1 0 1 -5.83174 4.33373 1.0029
669 1 1 0 1 4.93522 2.32819 4.05724
670 1 1 0 1 -2.79371 3.85269 9.30784
671 1 1 0 1 1.58642 0.295219 4.38473
672 1 1 0 1 -3.45885 19.8164 13.2295
673 1 1 0 1 -8.64995 17.123 12.3499
674 1 1 0 1 0.192355 11.5898 17.5192
675 1 1 0 1 -0.0931897 7.90459 17.2633
676 1 1 0 1 -4.24665 -0.416153 15.2378
677 1 1 0 1 0.290317 3.51549 15.1304
678 1 1 0 1 5.49116 7.33521 19.3597
679 1 1 0 1 -10.8542 7.94451 15.6151
680 1 1 0 1 -0.049779 5.04102 15.399
681 1 1 0 1 -5.48762 7.78794 17.9901
682 1 1 0 1 8.10098 7.49706 25.5979
683 1 1 0 1 0.653355 12.2524 10.8199
684 1 1 0 1 -4.50177 8.40332 -0.402774
685 1 1 0 1 1.97284 10.6466 -0.241272
686 1 1 0 1 -3.18772 6.10598 4.93516
687 1 1 0 1 -1.04267 15.6536 5.38243
688 1 1 0 1 -2.64092 16.2897 10.119
689 1 1 0 1 -2.15682 4.27771 5.24634
690 1 1 0 1 2.95231 1.97236 13.0047
691 1 1 0 1 0.367329 8.87484 3.25657
692 1 1 0 1 -6.59768 8.84697 9.19391
693 1 1 0 1 -3.56469 6.03506 19.2604
694 1 1 0 1 -9.83822 11.4467 12.5554
695 1 1 0 1 -2.18425 7.18994 16.5234
696 1 1 0 1 -7.30258 7.40634 20.99
697 1 1 0 1 -4.02703 9.00896 16.9797
698 1 1 0 1 -5.156 8.86166 12.7338
699 1 1 0 1 4.82556 6.3776 24.1541
700 1 1 0 1 2.33658 14.9182 17.9176
701 1 1 0 1 -2.16859 9.40298 20.1552
702 1 1 0 1 0.106817 7.85881 25.3132
703 1 1 0 1 -3.72561 15.4249 17.2391
704 1 1 0 1 8.58074 21.8803 16.6526
705 1 1 0 1 -0.726269 8.51474 3.80487
706 1 1 0 1 -1.4828 8.57311 -5.59027
707 1 1 0 1 -2.40833 30.2365 2.08796
708 1 1 0 1 4.49761 3.23264 4.06154
709 1 1 0 1 -10.2148 12.0333 6.42087
710 1 1 0 1 -2.82798 12.9474 -2.74909
711 1 1 0 1 -4.54166 8.40579 3.60735
712 1 1 0 1 -0.754639 11.0883 17.6165
713 1 1 0 1 1.6155 13.7945 2.11879
714 1 1 0 1 -2.23648 14.974 -0.223961
715 1 1 0 1 -3.78863 14.0423 15.3011
716 1 1 0 1 -4.10776 13.7326 19.0106
717 1 1 0 1 -2.32482 11.7923 20.1325
718 1 1 0 1 -1.59779 9.81583 13.9256
719 1 1 0 1 -6.54189 10.604 12.6446
720 1 1 0 1 -2.45737 12.3336 23.5065
721 1 1 0 1 -6.88229 12.5808 11.6482
722 1 1 0 1 2.23394 17.7975 27.923
723 1 1 0 1 -5.45058 9.35654 17.7372
724 1 1 0 1 -2.51211 20.8199 23.2263
725 1 1 0 1 1.21569 11.8228 23.5974
726 1 1 0 1 -9.72703 17.9143 16.4662
727 1 1 0 1 8.34967 14.4874 4.28179
728 1 1 0 1 -1.35889 20.3006 -5.39686
729 1 1 0 1 0.130808 5.50112 -8.18246
730 1 1 0 1 -5.69529 17.1461 7.55165
731 1 1 0 1 1.68355 20.051 2.92594
732 1 1 0 1 4.98433 13.3264 8.29987
733 1 1 0 1 -4.61925 9.46426 6.71879
734 1 1 0 1 4.73135 3.96014 2.86054
735 1 1 0 1 -10.4991 13.9935 3.76636
736 1 1 0 1 -8.87291 18.1481 0.38213
737 1 1 0 1 -2.20421 10.6485 15.3078
738 1 1 0 1 8.10084 13.4275 8.39539
739 1 1 0 1 -4.70511 2.57423 20.875
740 1 1 0 1 -2.56643 6.11711 18.7124
741 1 1 0 1 -0.000245405 9.09471 17.6206
742 1 1 0 1 2.75457 5.50456 25.6832
743 1 1 0 1 -5.82834 7.36521 16.4222
744 1 1 0 1 4.2552 16.1741 27.9259
745 1 1 0 1 -1.98232 9.62284 17.8881
746 1 1 0 1 -4.33155 12.0726 20.2513
747 1 1 0 1 3.6143 10.3936 26.0493
748 1 1 0 1 4.59838 12.7274 32.3871
749 1 1 0 1 4.3607 10.7772 2.55337
750 1 1 0 1 0.897233 12.2134 13.2506
751 1 1 0 1 -12.911 15.1435 11.9684
752 1 1 0 1 -4.73063 15.4095 13.7786
753 1 1 0 1 -2.1008 8.70577 14.3817
754 1 1 0 1 4.01793 9.36238 5.26638
755 1 1 0 1 -0.528954 19.0251 1.04098
756 1 1 0 1 -8.03599 21.0294 0.09204
757 1 1 0 1 -3.18549 11.1087 11.9721
758 1 1 0 1 -2.26415 20.8165 7.739
759 1 1 0 1 -0.122645 15.1646 5.57293
760 1 1 0 1 0.827297 0.718893 16.0142
761 1 1 0 1 -6.6374 15.7241 19.2422
762 1 1 0 1 -7.57064 14.7187 4.02253
763 1 1 0 1 8.13987 21.1164 12.0932
764 1 1 0 1 -1.54928 20.7219 12.6443
765 1 1 0 1 -0.192221 12.2426 18.3072
766 1 1 0 1 -5.76108 17.1841 15.9669
767 1 1 0 1 -12.1757 13.4093 19.0721
768 1 1 0 1 -7.91279 17.7231 24.5389
769 1 1 0 1 8.20671 12.1214 22.2265
770 1 1 0 1 -1.88172 17.4118 22.5742
771 1 1 0 1 -1.87545 14.1227 6.27904
772 1 1 0 1 -0.131013 10.2475 13.9345
773 1 1 0 1 -3.92666 9.94713 1.33898
774 1 1 0 1 -3.4311 2.04435 10.5897
775 1 1 0 1 -5.40043 15.355 -5.93967
776 1 1 0 1 0.47474 11.048 13.4353
777 1 1 0 1 -0.378667 13.6007 11.6328
778 1 1 0 1 -3.38514 14.4899 11.3018
779 1 1 0 1 0.222071 14.2148 24.5599
780 1 1 0 1 -5.55637 19.1182 6.53022
781 1 1 0 1 4.52971 20.3391 16.9761
782 1 1 0 1 3.01817 20.9708 14.4991
783 1 1 0 1 -4.19009 14.9744 3.85969
784 1 1 0 1 -7.18866 17.1906 22.2448
785 1 1 0 1 -7.3347 27.1718 15.8577
786 1 1 0 1 -6.33281 8.84474 20.6239
787 1 1 0 1 2.3672 9.50444 23.2883
788 1 1 0 1 -10.3897 20.8293 15.3892
789 1 1 0 1 -3.66939 14.5437 19.833
790 1 1 0 1 -4.23181 13.4063 24.3038
791 1 1 0 1 -13.0428 14.6803 17.4419
792 1 1 0 1 -2.94892 9.14996 24.9695
793 1 1 0 1 -8.17434 21.6678 6.76987
794 1 1 0 1 -3.59424 16.3248 6.0299
795 1 1 0 1 5.33472 24.436 -3.1594
796 1 1 0 1 0.0490835 15.0203 10.0819
797 1 1 0 1 -4.44115 21.1437 0.56601
798 1 1 0 1 2.67319 13.241 -1.37561
799 1 1 0 1 -3.19717 14.6799 6.01119
800 1 1 0 1 5.05265 11.0724 3.7622
801 1 1 0 1 7.9919 11.2854 6.36071
802 1 1 0 1 -3.46351 22.0429 6.38048
803 1 1 0 1 2.5942 8.59801 17.0901
804 1 1 0 1 -1.89914 17.2869 8.59264
805 1 1 0 1 -11.7842 15.026 18.0335
806 1 1 0 1 -2.93332 -0.0265183 1.15283
807 1 1 0 1 5.68196 20.1063 16.118
808 1 1 0 1 -3.58193 19.8151 14.5815
809 1 1 0 1 -3.75573 16.9021 11.4729