ITEM: TIMESTEP
12000
ITEM: NUMBER OF ATOMS
6752
ITEM: BOX BOUNDS pp pp pp
0.0000000000000000e+00 2.2000000000000000e+01
0.0000000000000000e+00 2.2000000000000000e+01
0.0000000000000000e+00 2.2000000000000000e+01
ITEM: ATOMS id mol type q mass xu yu zu
1 1 1 0 1 -2.73084 -4.6064 1.57917
2 1 1 0 1 -4.31314 1.12404 4.04606
3 1 1 0 1 -3.09856 2.05788 6.76008
4 1 1 0 1 -8.17107 -2.22263 8.63389
5 1 1 0 1 -1.09655 3.91282 4.65798
6 1 1 0 1 -6.04912 -0.341306 10.6025
7 1 1 0 1 -4.38405 4.47312 5.53152
8 1 1 0 1 -0.550844 -4.07241 11.5638
9 1 1 0 1 0.0759229 2.29416 11.692
10 1 1 0 1 -7.67109 2.81595 10.2598
11 1 1 0 1 -2.99095 2.07716 7.78938
12 1 1 0 1 -7.73611 -3.47113 14.0357
13 1 1 0 1 1.12149 2.38319 11.7428
14 1 1 0 1 -1.73783 7.99936 15.2907
15 1 1 0 1 -8.34848 6.19314 11.5248
16 1 1 0 1 -6.0106 -2.02373 15.1416
17 1 1 0 1 -1.04565 1.11801 13.3919
18 1 1 0 1 -2.45721 -0.883721 21.3967
19 1 1 0 1 0.109173 4.63651 18.7087
20 1 1 0 1 0.197779 -2.75268 19.2191
21 1 1 0 1 -2.05087 3.82202 15.2108
22 1 1 0 1 -5.61448 12.7964 18.177
23 1 1 0 1 -6.42673 -1.08707 4.49861
24 1 1 0 1 -5.6996 1.95837 -1.68206
25 1 1 0 1 -3.99017 -3.24344 -2.80515
26 1 1 0 1 0.292573 -0.19529 7.22464
27 1 1 0 1 -6.35329 -1.03974 11.469
28 1 1 0 1 -5.94372 3.95019 0.733441
29 1 1 0 1 -2.49506 -2.0254 11.4535
30 1 1 0 1 -4.95186 -1.27613 10.6475
31 1 1 0 1 -3.32052 4.72914 11.4265
32 1 1 0 1 -6.61762 -3.59441 6.2815
33 1 1 0 1 -5.13407 3.55595 10.7726
34 1 1 0 1 -0.529296 2.70585 12.9759
35 1 1 0 1 -4.6892 1.41682 12.7063
36 1 1 0 1 0.566661 0.919277 6.42956
37 1 1 0 1 -6.09712 0.825723 14.8842
38 1 1 0 1 0.0518732 1.65647 19.873
39 1 1 0 1 -1.52901 1.22806 10.4962
40 1 1 0 1 -2.70477 6.41048 23.1103
41 1 1 0 1 -5.77295 -1.0672 14.9228
42 1 1 0 1 -8.12773 1.59656 23.0143
43 1 1 0 1 -1.79229 11.1917 22.5765
44 1 1 0 1 -2.74627 8.13118 16.6529
45 1 1 0 1 -10.3525 7.72603 7.60789
46 1 1 0 1 -6.181 6.65237 8.75308
47 1 1 0 1 -1.73078 1.80054 -2.50122
48 1 1 0 1 -10.125 3.8666 3.11207
49 1 1 0 1 0.315989 4.43217 0.687929
50 1 1 0 1 -2.87268 5.74365 -0.123589
51 1 1 0 1 -3.03298 6.2643 6.59984
52 1 1 0 1 1.7599 3.56289 14.8161
53 1 1 0 1 -4.34286 0.361577 5.50669
54 1 1 0 1 -4.48001 0.368342 12.2943
55 1 1 0 1 -5.43722 3.65557 11.9349
56 1 1 0 1 0.422558 0.986913 7.7938
57 1 1 0 1 -0.979477 8.03717 12.6545
58 1 1 0 1 -2.36395 10.7466 15.0348
59 1 1 0 1 -4.78675 1.09727 11.6716
60 1 1 0 1 0.757975 3.7278 19.281
61 1 1 0 1 -7.35357 6.05189 11.1092
62 1 1 0 1 -0.488053 1.1301 20.6922
63 1 1 0 1 -2.69174 10.4706 4.3665
64 1 1 0 1 -3.0626 -2.04787 15.9879
65 1 1 0 1 -4.49524 4.32369 19.5067
66 1 1 0 1 -10.0007 2.12986 24.1235
67 1 1 0 1 -4.3298 2.76383 -3.02055
68 1 1 0 1 -3.16409 2.61322 -8.51886
69 1 1 0 1 -4.54429 6.40129 -1.28439
70 1 1 0 1 -3.32042 7.35296 3.39679
71 1 1 0 1 1.98366 4.31972 4.16004
72 1 1 0 1 -10.734 4.27124 5.05708
73 1 1 0 1 2.88635 -0.163864 9.90102
74 1 1 0 1 -5.33977 4.03932 9.75534
75 1 1 0 1 -2.12118 0.0580175 11.8626
76 1 1 0 1 -8.52037 -0.35558 8.83774
77 1 1 0 1 -5.42628 -3.78791 8.1525
78 1 1 0 1 -2.70126 5.67354 12.9011
79 1 1 0 1 -4.27858 2.22697 11.7499
80 1 1 0 1 3.70348 3.4398 7.88441
81 1 1 0 1 0.0610963 7.44207 15.2583
82 1 1 0 1 -3.17441 0.0273845 13.5516
83 1 1 0 1 -3.39094 0.828322 17.5778
84 1 1 0 1 -0.988242 3.82544 17.1872
85 1 1 0 1 -4.99141 1.56431 24.3274
86 1 1 0 1 -2.69919 3.78934 18.4247
87 1 1 0 1 -5.76837 -2.77362 21.3952
88 1 1 0 1 -4.2339 8.68004 21.4266
89 1 1 0 1 -2.56907 9.83445 -0.451322
90 1 1 0 1 -0.245806 7.18295 7.07745
91 1 1 0 1 -3.71623 -1.41249 6.30457
92 1 1 0 1 -5.40539 8.28812 8.88133
93 1 1 0 1 -4.16475 7.89217 8.94175
94 1 1 0 1 -6.00187 -0.261565 7.06231
95 1 1 0 1 -5.81693 7.09386 10.9137
96 1 1 0 1 -2.29778 4.78105 10.9592
97 1 1 0 1 -0.27493 8.8057 11.7763
98 1 1 0 1 -0.942278 6.93045 6.34301
99 1 1 0 1 -4.14884 5.5034 10.5949
100 1 1 0 1 -1.69581 3.71711 6.06129
101 1 1 0 1 -5.4639 4.85956 12.0353
102 1 1 0 1 -3.12515 4.59193 14.6892
103 1 1 0 1 -6.39229 12.5053 11.0015
104 1 1 0 1 -3.39451 11.1785 12.9469
105 1 1 0 1 -5.09736 9.2483 9.52857
106 1 1 0 1 -2.37193 1.68103 20.7105
107 1 1 0 1 -6.70972 11.3684 16.8666
108 1 1 0 1 -2.54515 7.10567 17.6826
109 1 1 0 1 -8.52654 7.33949 20.5047
110 1 1 0 1 -6.24013 9.34109 20.4184
111 1 1 0 1 -6.54026 0.963808 2.96323
112 1 1 0 1 -2.5871 2.44559 -2.22641
113 1 1 0 1 -0.0929697 14.352 8.41866
114 1 1 0 1 -4.7833 5.64118 3.34525
115 1 1 0 1 -2.32354 12.4071 5.45099
116 1 1 0 1 -1.99843 13.1424 2.80445
117 1 1 0 1 -2.73158 9.73863 6.25707
118 1 1 0 1 -2.20888 5.92435 7.63018
119 1 1 0 1 -3.46941 -1.18107 9.41398
120 1 1 0 1 -3.04926 -0.100074 8.60499
121 1 1 0 1 -0.182021 3.05953 7.39587
122 1 1 0 1 -5.73101 5.67706 10.9246
123 1 1 0 1 -3.51746 7.50823 16.096
124 1 1 0 1 -6.9473 10.5644 15.5763
125 1 1 0 1 -4.82665 11.1024 9.10592
126 1 1 0 1 -5.58643 8.04303 15.0096
127 1 1 0 1 -2.79323 10.6757 17.4992
128 1 1 0 1 -8.08768 12.5849 14.958
129 1 1 0 1 -0.61455 6.34682 19.2805
130 1 1 0 1 -6.06948 3.87912 19.074
131 1 1 0 1 -3.53345 3.82462 13.5069
132 1 1 0 1 -6.00508 7.12741 23.0377
133 1 1 0 1 -2.37046 7.56275 0.675992
134 1 1 0 1 -8.00517 6.72063 6.61499
135 1 1 0 1 -6.5438 -0.0976173 3.19729
136 1 1 0 1 -3.43818 12.2335 3.9204
137 1 1 0 1 -7.89582 9.03164 5.45393
138 1 1 0 1 -7.94766 9.14103 10.5934
139 1 1 0 1 -1.48574 8.54119 4.62504
140 1 1 0 1 -7.7856 8.05076 3.22063
141 1 1 0 1 6.78724 6.99931 0.799591
142 1 1 0 1 -1.21359 2.29932 12.0335
143 1 1 0 1 -1.83415 2.76989 12.8319
144 1 1 0 1 -0.951682 2.47403 7.81176
145 1 1 0 1 -3.45566 7.55515 17.4811
146 1 1 0 1 -4.05385 12.6606 20.6147
147 1 1 0 1 -3.20381 12.171 13.4021
148 1 1 0 1 -4.98768 14.4863 14.0655
149 1 1 0 1 -4.81402 9.35213 22.0513
150 1 1 0 1 -7.34764 7.88957 13.5157
151 1 1 0 1 -5.01925 4.45725 21.1992
152 1 1 0 1 -4.01313 5.83181 18.0581
153 1 1 0 1 -4.3732 6.67229 19.0129
154 1 1 0 1 -1.82012 7.88953 27.3625
155 1 1 0 1 -3.18517 4.9833 -3.32327
156 1 1 0 1 -3.90096 2.67135 1.55289
157 1 1 0 1 -2.40626 6.83718 3.00546
158 1 1 0 1 -3.22351 7.81399 2.41045
159 1 1 0 1 -7.01973 7.78473 -1.24262
160 1 1 0 1 -8.17265 3.58877 7.04836
161 1 1 0 1 -1.51859 10.0272 3.24781
162 1 1 0 1 -3.02542 5.41811 5.62524
163 1 1 0 1 0.0696051 5.50517 7.89928
164 1 1 0 1 -4.10065 4.72285 14.2221
165 1 1 0 1 -3.54417 6.60172 7.70765
166 1 1 0 1 -1.99911 7.34676 16.1718
167 1 1 0 1 -1.16834 10.7057 11.3361
168 1 1 0 1 -2.39367 10.3292 19.5472
169 1 1 0 1 -8.034 11.5848 18.3731
170 1 1 0 1 0.00415255 7.63914 21.1685
171 1 1 0 1 -1.24623 10.4343 17.9264
172 1 1 0 1 -2.1305 9.02168 22.0105
173 1 1 0 1 -0.806846 5.00893 15.4229
174 1 1 0 1 0.251576 4.30047 24.7807
175 1 1 0 1 -7.36101 10.216 20.8954
176 1 1 0 1 2.25848 7.07098 24.9962
177 1 1 0 1 -6.1309 2.37301 -0.725699
178 1 1 0 1 -0.128907 18.9339 6.49753
179 1 1 0 1 -3.73518 16.1181 -1.48613
180 1 1 0 1 -0.385946 13.6296 4.00754
181 1 1 0 1 -3.96653 11.3574 6.45147
182 1 1 0 1 -4.18128 15.0476 6.65671
183 1 1 0 1 -4.28512 6.7027 3.88605
184 1 1 0 1 -3.59037 9.98689 8.19342
185 1 1 0 1 -7.92256 1.51116 9.53838
186 1 1 0 1 -10.3063 11.472 7.26409
187 1 1 0 1 -7.78345 14.1035 8.60596
188 1 1 0 1 -2.71876 2.82328 10.0799
189 1 1 0 1 0.760012 12.6063 11.7473
190 1 1 0 1 -5.44642 7.94957 17.3745
191 1 1 0 1 -1.582 10.9118 19.9546
192 1 1 0 1 -2.35386 9.2684 20.1449
193 1 1 0 1 -0.822364 4.60823 16.392
194 1 1 0 1 1.27735 10.5722 23.5048
195 1 1 0 1 -3.7709 8.43357 16.394
196 1 1 0 1 -1.63218 4.40875 19.6934
197 1 1 0 1 -4.35817 9.80489 18.2221
198 1 1 0 1 1.20866 8.98403 24.7098
199 1 1 0 1 2.88899 11.4256 1.44644
200 1 1 0 1 0.830209 9.02016 3.86792
201 1 1 0 1 -3.73195 8.64811 1.26591
202 1 1 0 1 -3.17143 7.71064 5.52394
203 1 1 0 1 -6.50829 9.35158 1.18006
204 1 1 0 1 -2.95191 11.2755 7.21858
205 1 1 0 1 -0.1046 6.6349 5.52211
206 1 1 0 1 -2.99177 9.03825 5.43045
207 1 1 0 1 -7.47796 4.98436 3.83995
208 1 1 0 1 -3.3249 5.73742 14.7645
209 1 1 0 1 -3.95106 2.86996 8.28117
210 1 1 0 1 -4.51514 8.29517 12.3081
211 1 1 0 1 1.93862 8.90331 11.8461
212 1 1 0 1 -5.02969 10.3292 9.91857
213 1 1 0 1 3.26871 13.1523 19.818
214 1 1 0 1 -10.6416 13.3628 20.351
215 1 1 0 1 -6.15501 9.54828 19.1146
216 1 1 0 1 -5.06791 8.01467 18.9922
217 1 1 0 1 -4.42759 14.1474 25.44
218 1 1 0 1 -2.23629 9.87539 22.5632
219 1 1 0 1 2.26478 9.57843 23.9243
220 1 1 0 1 -1.45776 12.1798 21.773
221 1 1 0 1 4.601 10.1019 -3.75438
222 1 1 0 1 -5.56511 8.85811 5.04653
223 1 1 0 1 -10.1845 11.1098 3.94462
224 1 1 0 1 -2.39731 10.2126 2.33635
225 1 1 0 1 -6.72123 13.925 6.30069
226 1 1 0 1 -9.48259 13.7801 7.67621
227 1 1 0 1 -8.91606 14.0376 8.55619
228 1 1 0 1 -5.51698 14.9069 7.32407
229 1 1 0 1 -1.91748 11.5255 7.25501
230 1 1 0 1 -4.74488 13.9762 5.68326
231 1 1 0 1 -4.7491 9.88076 14.778
232 1 1 0 1 -1.78247 1.24969 12.2172
233 1 1 0 1 -3.01735 10.4673 14.0795
234 1 1 0 1 -9.21747 10.8799 13.0412
235 1 1 0 1 -1.59183 8.13736 18.3751
236 1 1 0 1 -9.10816 14.946 14.4947
237 1 1 0 1 -5.45899 16.6749 19.7914
238 1 1 0 1 -6.92094 12.4233 14.0538
239 1 1 0 1 -6.42724 12.2411 17.661
240 1 1 0 1 -4.50841 12.096 17.8659
241 1 1 0 1 -2.11109 8.29073 20.4354
242 1 1 0 1 -0.995413 7.83942 22.8319
243 1 1 0 1 -1.61015 10.9335 2.78393
244 1 1 0 1 -4.562 13.5831 -0.283867
245 1 1 0 1 -6.18314 13.6869 2.69752
246 1 1 0 1 -2.62055 12.9 4.49752
247 1 1 0 1 -6.55878 11.3636 3.55411
248 1 1 0 1 -2.701 4.4358 4.82986
249 1 1 0 1 -6.28994 11.7237 7.02159
250 1 1 0 1 -2.15257 9.18866 9.80324
251 1 1 0 1 -4.6603 9.7069 7.31266
252 1 1 0 1 2.57984 6.38842 8.056
253 1 1 0 1 0.462526 2.36039 12.6169
254 1 1 0 1 1.35777 11.7612 11.4613
255 1 1 0 1 -7.59391 10.0923 10.4046
256 1 1 0 1 -9.47638 17.6117 12.9693
257 1 1 0 1 -1.11808 16.7727 18.4551
258 1 1 0 1 -0.355255 15.1394 14.6312
259 1 1 0 1 -2.26512 14.2268 19.9647
260 1 1 0 1 0.300153 12.9706 16.9632
261 1 1 0 1 -3.43306 8.525 17.4221
262 1 1 0 1 -3.35758 14.5072 23.4908
263 1 1 0 1 -1.79899 11.7188 16.1431
264 1 1 0 1 1.77666 19.2413 23.6012
265 1 1 0 1 -0.709372 12.9901 -0.0331788
266 1 1 0 1 5.96396 14.5248 3.06749
267 1 1 0 1 -3.77422 14.7122 4.48762
268 1 1 0 1 -3.60166 10.1087 0.422752
269 1 1 0 1 2.74606 10.2357 10.102
270 1 1 0 1 -2.45777 13.7052 -1.21532
271 1 1 0 1 -2.66064 6.13959 8.52924
272 1 1 0 1 -8.19106 13.0624 11.0742
273 1 1 0 1 -5.09086 13.0162 6.00816
274 1 1 0 1 -6.54268 7.49337 12.855
275 1 1 0 1 -10.4728 6.51158 12.5645
276 1 1 0 1 -1.64508 11.0677 12.5963
277 1 1 0 1 -1.48381 12.6416 9.73394
278 1 1 0 1 0.363023 15.8087 11.7655
279 1 1 0 1 -5.85322 15.4858 13.6706
280 1 1 0 1 -10.2391 13.6179 5.11136
281 1 1 0 1 -0.0901331 15.4318 22.3083
282 1 1 0 1 -4.70504 13.9229 9.21846
283 1 1 0 1 0.781737 15.1821 14.229
284 1 1 0 1 -2.47619 13.8435 17.3242
285 1 1 0 1 -3.48239 11.5029 17.7324
286 1 1 0 1 -2.13734 13.5225 19.0189
287 1 1 0 1 -2.42269 19.5384 3.83379
288 1 1 0 1 -0.799373 15.0366 5.75364
289 1 1 0 1 -6.04725 4.77021 6.95939
290 1 1 0 1 -2.6229 8.39477 1.59681
291 1 1 0 1 -8.62963 9.19039 14.6335
292 1 1 0 1 -6.7699 15.497 7.52806
293 1 1 0 1 0.647216 10.2356 6.50571
294 1 1 0 1 -3.24163 12.1507 9.07344
295 1 1 0 1 -1.58648 9.00535 12.1548
296 1 1 0 1 -3.95854 11.8302 9.85112
297 1 1 0 1 -3.90086 12.6515 7.05522
298 1 1 0 1 -6.91899 5.41604 12.1269
299 1 1 0 1 0.181593 16.0448 14.6157
300 1 1 0 1 0.740098 17.7859 21.1859
301 1 1 0 1 -6.56984 16.4164 14.4352
302 1 1 0 1 -4.24479 15.6009 17.1414
303 1 1 0 1 -5.23675 16.7065 11.1011
304 1 1 0 1 -1.12457 11.4991 9.38866
305 1 1 0 1 0.660846 12.4231 14.2099
306 1 1 0 1 -0.461801 16.1971 23.2317
307 1 1 0 1 -3.55372 12.5723 12.3527
308 1 1 0 1 -0.706839 20.5143 31.2527
309 1 1 0 1 -0.360852 13.7116 2.57095
310 1 1 0 1 -3.03009 12.9132 2.32872
311 1 1 0 1 -4.3944 13.2047 -2.49303
312 1 1 0 1 -8.86616 8.85888 3.70404
313 1 1 0 1 -9.14618 15.2409 1.9186
314 1 1 0 1 -1.17887 10.815 4.17028
315 1 1 0 1 -0.601818 8.02989 10.5684
316 1 1 0 1 -5.56834 13.2082 1.73859
317 1 1 0 1 -4.89295 13.8924 6.75175
318 1 1 0 1 -3.15027 14.7384 8.34813
319 1 1 0 1 -3.67561 13.75 7.25082
320 1 1 0 1 1.67169 21.9002 10.9274
321 1 1 0 1 -1.47301 14.3716 14.3171
322 1 1 0 1 -0.0127925 8.63013 13.7164
323 1 1 0 1 -4.44683 13.603 10.1939
324 1 1 0 1 -5.14368 11.4635 6.71297
325 1 1 0 1 -1.47474 15.3928 10.4349
326 1 1 0 1 -7.86298 14.8271 18.3914
327 1 1 0 1 -2.23188 14.9405 18.9666
328 1 1 0 1 -5.00887 16.772 18.6969
329 1 1 0 1 -1.16099 12.0879 19.1094
330 1 1 0 1 -1.05034 14.1188 20.2815
331 1 1 0 1 -3.2883 17.6449 3.79408
332 1 1 0 1 -0.986973 19.984 3.98605
333 1 1 0 1 -2.62502 14.2117 4.85633
334 1 1 0 1 -4.00278 17.2786 1.26988
335 1 1 0 1 -2.26546 16.0544 6.79056
336 1 1 0 1 -8.23426 9.26358 4.50879
337 1 1 0 1 -3.00279 9.67672 9.52106
338 1 1 0 1 -1.4928 13.711 8.42815
339 1 1 0 1 -11.3675 11.6456 1.89756
340 1 1 0 1 3.99729 15.3764 8.60329
341 1 1 0 1 -4.42879 9.6525 8.75013
342 1 1 0 1 -5.96541 14.1013 14.072
343 1 1 0 1 -6.24286 11.5881 1.46092
344 1 1 0 1 -7.25653 12.1547 11.6358
345 1 1 0 1 -7.61282 14.4425 15.2537
346 1 1 0 1 9.05441 16.6386 14.8188
347 1 1 0 1 -0.603526 15.9998 19.1938
348 1 1 0 1 -2.27491 11.4157 17.1403
349 1 1 0 1 0.416249 16.5018 15.9497
350 1 1 0 1 -2.34279 12.5859 19.1386
351 1 1 0 1 -9.4151 18.6017 16.3643
352 1 1 0 1 -1.4323 17.5795 25.6964
353 1 1 0 1 -6.83053 17.8975 2.48092
354 1 1 0 1 4.72489 17.9401 0.785572
355 1 1 0 1 -4.44929 11.8909 7.59042
356 1 1 0 1 -4.78739 12.0056 4.30509
357 1 1 0 1 -0.534377 16.2954 2.39628
358 1 1 0 1 -3.25234 15.8464 4.92505
359 1 1 0 1 -6.9668 15.5577 4.36869
360 1 1 0 1 -1.68632 14.4041 7.52826
361 1 1 0 1 -6.4623 17.2705 11.3354
362 1 1 0 1 -0.79761 14.1696 11.8069
363 1 1 0 1 -0.651061 12.4264 7.74507
364 1 1 0 1 3.63213 15.4504 13.0981
365 1 1 0 1 -2.47041 9.08559 2.31636
366 1 1 0 1 -6.63882 13.4659 14.7087
367 1 1 0 1 -0.544544 12.1832 9.76983
368 1 1 0 1 -5.3501 18.7356 19.3094
369 1 1 0 1 -6.17108 9.81174 11.7322
370 1 1 0 1 -2.64047 8.91141 8.87955
371 1 1 0 1 -1.32208 18.5727 24.3797
372 1 1 0 1 -3.06862 13.4325 18.4226
373 1 1 0 1 -9.68553 13.0595 21.4914
374 1 1 0 1 -3.58821 14.8937 25.1438
375 1 1 0 1 -6.2485 8.06779 3.5463
376 1 1 0 1 -6.5742 10.5041 1.12708
377 1 1 0 1 -7.82308 17.2505 2.62427
378 1 1 0 1 -8.3899 16.5734 3.50787
379 1 1 0 1 -5.74247 14.7883 -3.98437
380 1 1 0 1 -4.79712 13.8293 2.53374
381 1 1 0 1 -5.00116 15.6867 5.47552
382 1 1 0 1 -10.1376 18.6141 13.4407
383 1 1 0 1 -2.436 16.9671 13.686
384 1 1 0 1 0.427768 12.8827 9.12214
385 1 1 0 1 -2.57241 18.5157 13.0134
386 1 1 0 1 -4.41879 16.1652 9.19121
387 1 1 0 1 -7.75602 13.2069 14.1475
388 1 1 0 1 -3.84019 14.0711 19.0479
389 1 1 0 1 -6.3877 12.9217 16.1311
390 1 1 0 1 -1.44402 15.2283 20.4827
391 1 1 0 1 -4.36999 17.5767 18.7727
392 1 1 0 1 -8.07694 16.2438 8.78042
393 1 1 0 1 -3.36927 8.247 15.4098
394 1 1 0 1 -6.06173 17.858 20.4028
395 1 1 0 1 -7.45486 12.6819 13.0782
396 1 1 0 1 -4.54455 16.1765 22.9142
397 1 1 0 1 0.208316 18.796 1.65247
398 1 1 0 1 -3.8835 26.1604 2.99728
399 1 1 0 1 -6.91316 15.0921 -3.76644
400 1 1 0 1 -2.36252 9.56143 4.49538
401 1 1 0 1 1.92005 13.9617 6.22852
402 1 1 0 1 -1.75496 18.8161 8.48443
403 1 1 0 1 -1.50804 15.8113 11.4853
404 1 1 0 1 -5.75413 24.329 1.80981
405 1 1 0 1 -9.88631 13.9717 9.1936
406 1 1 0 1 -5.82829 16.3093 7.72298
407 1 1 0 1 -4.59303 16.0289 7.78224
408 1 1 0 1 -11.2746 17.3809 8.91184
409 1 1 0 1 -5.42807 14.2744 14.9859
410 1 1 0 1 -6.9427 10.5403 13.1175
411 1 1 0 1 -0.683247 16.7319 12.8397
412 1 1 0 1 -12.9339 14.8781 10.8476
413 1 1 0 1 -8.2176 17.4778 20.5487
414 1 1 0 1 -5.97894 11.8727 20.17
415 1 1 0 1 -1.56784 16.2907 21.375
416 1 1 0 1 -2.25149 11.2464 21.5226
417 1 1 0 1 2.1394 20.9916 21.7034
418 1 1 0 1 -0.553935 15.1229 23.2876
419 1 1 0 1 -5.53527 18.3509 5.62041
420 1 1 0 1 -1.93589 25.611 10.5747
421 1 1 0 1 -5.91712 18.6326 7.03742
422 1 1 0 1 -1.87466 12.067 4.34317
423 1 1 0 1 -3.98486 21.383 8.3414
424 1 1 0 1 -5.09305 19.4727 8.08235
425 1 1 0 1 -5.54635 17.0749 5.07231
426 1 1 0 1 -0.825444 22.4187 4.36125
427 1 1 0 1 0.0563845 18.8136 9.36158
428 1 1 0 1 2.00838 23.9805 3.85321
429 1 1 0 1 -4.69247 25.5576 8.66689
430 1 1 0 1 2.9592 18.6747 12.457
431 1 1 0 1 -8.33972 17.3824 13.1906
432 1 1 0 1 -0.590811 23.9278 13.9785
433 1 1 0 1 -5.63341 17.1762 17.4459
434 1 1 0 1 -4.34269 12.5508 13.1027
435 1 1 0 1 -5.13551 11.1205 19.6234
436 1 1 0 1 -8.62878 18.4067 18.275
437 1 1 0 1 -1.23227 15.5877 15.7724
438 1 1 0 1 -4.31529 17.6748 17.6691
439 1 1 0 1 -3.01709 21.493 20.4807
440 1 1 0 1 -6.04911 16.9324 21.0732
441 1 1 0 1 -4.3672 16.9991 -2.30152
442 1 1 0 1 -2.65951 19.9611 6.0566
443 1 1 0 1 -2.86568 19.74 0.226455
444 1 1 0 1 -4.14217 26.807 -0.389213
445 1 1 0 1 -6.61176 17.9096 5.36646
446 1 1 0 1 -1.9876 7.78473 8.23046
447 1 1 0 1 -5.0366 12.5428 6.93523
448 1 1 0 1 -6.97991 15.4551 8.91823
449 1 1 0 1 -5.39859 17.7725 11.0234
450 1 1 0 1 -0.220207 17.1247 19.1016
451 1 1 0 1 -5.88583 17.4369 8.58367
452 1 1 0 1 -8.78989 16.1124 16.9278
453 1 1 0 1 -6.30106 17.3761 16.4758
454 1 1 0 1 1.39321 23.1895 15.124
455 1 1 0 1 -4.85056 10.3943 11.0235
456 1 1 0 1 -4.63211 14.4148 12.2823
457 1 1 0 1 -9.00499 21.6885 13.5022
458 1 1 0 1 -10.2414 19.602 17.3927
459 1 1 0 1 -6.29861 18.1184 17.3249
460 1 1 0 1 -2.9943 13.3778 19.7909
461 1 1 0 1 -0.284961 21.4169 12.0535
462 1 1 0 1 2.37585 19.5735 20.0657
463 1 1 0 1 -0.0548877 21.283 -6.79987
464 1 1 0 1 0.744153 20.077 3.0848
465 1 1 0 1 1.99214 24.3127 2.33019
466 1 1 0 1 0.154076 25.3194 4.6279
467 1 1 0 1 -6.06665 18.8367 12.674
468 1 1 0 1 -3.66687 21.436 5.38359
469 1 1 0 1 -3.67159 15.7386 7.32971
470 1 1 0 1 -0.163119 21.9849 3.70071
471 1 1 0 1 -2.92165 14.6498 5.96083
472 1 1 0 1 2.04824 27.7286 9.39158
473 1 1 0 1 -6.30269 19.0731 14.216
474 1 1 0 1 -0.974529 17.4183 10.5855
475 1 1 0 1 -2.09069 17.5663 14.5596
476 1 1 0 1 -0.79098 22.0643 21.3268
477 1 1 0 1 -3.1714 22.2231 16.3398
478 1 1 0 1 -2.57391 19.015 16.0677
479 1 1 0 1 -1.38229 24.5 15.0223
480 1 1 0 1 2.7424 21.1437 15.5479
481 1 1 0 1 -2.39551 19.2169 19.663
482 1 1 0 1 -6.94614 27.2752 15.1195
483 1 1 0 1 1.34139 20.3373 26.6418
484 1 1 0 1 1.15645 21.3069 26.1331
485 1 1 0 1 -3.74551 -1.73043 2.39461
486 1 1 0 1 -2.3528 4.208 -4.9862
487 1 1 0 1 -2.91933 5.77688 2.30272
488 1 1 0 1 -1.81793 -0.747357 2.07306
489 1 1 0 1 -1.63232 6.05473 6.53478
490 1 1 0 1 -3.58979 -0.39856 3.18273
491 1 1 0 1 -2.76207 1.22053 8.339
492 1 1 0 1 -0.698975 -6.10227 9.23113
493 1 1 0 1 -3.8009 -0.927868 10.4562
494 1 1 0 1 -5.17507 -1.02582 5.41465
495 1 1 0 1 -2.79737 1.29639 16.2218
496 1 1 0 1 0.21725 5.19608 12.6688
497 1 1 0 1 -0.690222 -1.94755 10.785
498 1 1 0 1 -0.211341 -2.2381 18.0798
499 1 1 0 1 -3.34306 -2.29432 13.1286
500 1 1 0 1 -3.1874 -5.79819 19.479
501 1 1 0 1 0.898668 -4.48247 12.0303
502 1 1 0 1 1.35005 -4.36052 19.7483
503 1 1 0 1 -2.8886 3.2124 15.2947
504 1 1 0 1 -1.66586 -0.229318 13.7654
505 1 1 0 1 -4.16624 -1.82515 14.0988
506 1 1 0 1 -3.41529 3.25712 20.2208
507 1 1 0 1 -2.38598 3.93378 0.61506
508 1 1 0 1 -2.26285 1.27521 3.27113
509 1 1 0 1 -4.78808 4.66714 2.76786
510 1 1 0 1 -4.29182 -0.597592 2.12795
511 1 1 0 1 1.01557 3.57397 -0.276762
512 1 1 0 1 -2.27292 4.62562 6.30125
513 1 1 0 1 -2.44791 -1.16149 5.31112
514 1 1 0 1 -3.43149 -0.572871 4.34972
515 1 1 0 1 3.28632 5.519 2.6359
516 1 1 0 1 -5.04612 -0.381894 10.2029
517 1 1 0 1 -4.07723 0.281393 7.70278
518 1 1 0 1 -1.66749 1.70658 6.0053
519 1 1 0 1 1.10264 0.223134 12.9943
520 1 1 0 1 0.306227 -1.37656 12.5389
521 1 1 0 1 0.54049 2.61135 10.666
522 1 1 0 1 -4.54655 4.1182 11.8186
523 1 1 0 1 2.00081 -2.13147 14.6051
524 1 1 0 1 -0.844548 1.02379 14.6184
525 1 1 0 1 -6.98677 4.21232 22.9723
526 1 1 0 1 2.80677 -4.08606 23.7751
527 1 1 0 1 -1.45699 5.97982 21.1296
528 1 1 0 1 1.76947 4.85974 22.4798
529 1 1 0 1 4.83651 8.53532 4.40116
530 1 1 0 1 -0.548664 -1.49217 -2.76078
531 1 1 0 1 -3.47797 9.67618 -1.57003
532 1 1 0 1 0.884248 -3.39519 0.75469
533 1 1 0 1 -4.12143 2.30723 -0.169554
534 1 1 0 1 -0.700084 2.45839 4.9942
535 1 1 0 1 1.12939 4.46411 3.33454
536 1 1 0 1 -1.86969 5.53265 5.37378
537 1 1 0 1 -2.00407 2.16397 8.13638
538 1 1 0 1 -5.40227 -2.81774 11.0641
539 1 1 0 1 -1.25131 4.45596 14.5718
540 1 1 0 1 -1.7922 5.96192 10.7127
541 1 1 0 1 -4.89398 9.85137 13.148
542 1 1 0 1 -4.28057 4.74245 15.2641
543 1 1 0 1 -9.69214 7.52051 14.1926
544 1 1 0 1 1.98608 3.50822 13.7555
545 1 1 0 1 -2.82137 3.55192 12.5536
546 1 1 0 1 1.90094 0.961668 13.4268
547 1 1 0 1 -2.46121 0.286478 18.7675
548 1 1 0 1 -3.45314 8.36438 25.2985
549 1 1 0 1 -2.73451 6.86104 22.0225
550 1 1 0 1 -3.37656 5.54958 23.3432
551 1 1 0 1 -2.39853 8.44579 3.12306
552 1 1 0 1 -4.99094 7.8844 -0.88124
553 1 1 0 1 -1.50087 8.88631 3.53234
554 1 1 0 1 -0.35202 4.31661 -0.998339
555 1 1 0 1 -1.63838 7.48695 2.80246
556 1 1 0 1 -3.42855 2.55125 5.54508
557 1 1 0 1 -0.643595 3.73568 7.90651
558 1 1 0 1 1.87418 4.84416 5.09925
559 1 1 0 1 -2.97257 -0.402818 9.98013
560 1 1 0 1 -5.50468 0.760031 5.01026
561 1 1 0 1 0.257786 -0.443756 13.1142
562 1 1 0 1 0.854756 4.53859 14.7202
563 1 1 0 1 -3.64733 2.02317 12.7701
564 1 1 0 1 -3.47984 -1.90653 10.2957
565 1 1 0 1 3.49682 7.05365 14.3171
566 1 1 0 1 3.89617 4.62338 15.0583
567 1 1 0 1 -0.359584 7.32576 19.9076
568 1 1 0 1 1.81239 6.60011 15.9399
569 1 1 0 1 1.75359 3.31686 20.15
570 1 1 0 1 -4.28758 3.53459 22.0256
571 1 1 0 1 2.78988 5.41304 18.2623
572 1 1 0 1 -2.17323 1.57222 22.2573
573 1 1 0 1 -2.3631 5.97265 -1.30788
574 1 1 0 1 -0.178906 6.60709 8.21205
575 1 1 0 1 -4.13344 0.480987 -1.30522
576 1 1 0 1 -4.27561 4.76353 1.49904
577 1 1 0 1 -5.23772 4.90207 5.60445
578 1 1 0 1 -2.79389 9.16897 11.4505
579 1 1 0 1 -4.94349 5.41458 8.38756
580 1 1 0 1 -3.22531 1.13026 9.54051
581 1 1 0 1 -2.05241 8.12964 10.7073
582 1 1 0 1 -0.0023434 4.42546 8.6093
583 1 1 0 1 -3.89174 6.13326 9.64082
584 1 1 0 1 -2.94186 9.02307 15.9811
585 1 1 0 1 -8.12099 5.75426 15.557
586 1 1 0 1 -0.668772 13.322 16.6394
587 1 1 0 1 -6.65738 11.484 13.5228
588 1 1 0 1 -5.97421 2.41792 15.876
589 1 1 0 1 -5.10942 4.93827 22.6405
590 1 1 0 1 -3.10808 3.42983 16.5442
591 1 1 0 1 -0.981578 2.91935 13.9429
592 1 1 0 1 -4.0107 3.10127 24.6382
593 1 1 0 1 0.159665 4.07015 17.0184
594 1 1 0 1 -4.58838 -2.38569 18.8056
595 1 1 0 1 -0.969839 4.50976 -3.22845
596 1 1 0 1 -2.71637 6.71158 5.64223
597 1 1 0 1 -4.62642 0.984792 8.13005
598 1 1 0 1 3.39783 5.85714 0.852625
599 1 1 0 1 4.02404 5.93065 2.14066
600 1 1 0 1 1.19586 8.87176 1.52006
601 1 1 0 1 -4.14121 6.81148 8.82631
602 1 1 0 1 3.84854 1.25495 1.97277
603 1 1 0 1 3.69946 3.4297 10.3149
604 1 1 0 1 3.36916 4.57498 11.778
605 1 1 0 1 2.89766 5.62305 8.73235
606 1 1 0 1 -5.65178 -3.21778 15.3059
607 1 1 0 1 -0.624459 7.50897 9.3727
608 1 1 0 1 -1.19442 0.843798 11.4936
609 1 1 0 1 4.99931 9.23094 13.3578
610 1 1 0 1 1.49808 6.04839 13.6423
611 1 1 0 1 -0.879517 3.39534 10.3679
612 1 1 0 1 2.39467 1.35735 18.3079
613 1 1 0 1 -1.99854 1.88341 15.8098
614 1 1 0 1 -5.42478 5.53619 23.8239
615 1 1 0 1 -7.94995 5.58295 22.9558
616 1 1 0 1 -0.0573588 6.2106 18.377
617 1 1 0 1 0.116443 3.08969 2.80161
618 1 1 0 1 -5.95617 8.32383 -2.56171
619 1 1 0 1 -2.4521 15.258 2.87289
620 1 1 0 1 2.35822 8.22577 2.88979
621 1 1 0 1 -4.55609 5.98592 4.55332
622 1 1 0 1 -8.46104 7.96924 8.56703
623 1 1 0 1 -10.0765 6.33287 3.50328
624 1 1 0 1 -2.65069 2.09868 4.47528
625 1 1 0 1 -3.6966 8.82635 8.3526
626 1 1 0 1 -0.0854648 8.48049 12.7291
627 1 1 0 1 -5.00824 -1.05228 15.557
628 1 1 0 1 3.52422 3.17179 6.76383
629 1 1 0 1 0.875878 10.2611 11.7357
630 1 1 0 1 2.56406 12.9353 15.7052
631 1 1 0 1 -0.919973 9.45163 13.0213
632 1 1 0 1 1.47613 5.28659 15.8035
633 1 1 0 1 -11.5886 9.36819 16.4007
634 1 1 0 1 -3.31363 7.41224 19.3689
635 1 1 0 1 -1.93797 6.28583 15.3639
636 1 1 0 1 -1.92059 3.28662 14.3504
637 1 1 0 1 -6.6132 3.7416 19.8001
638 1 1 0 1 -2.40393 5.36912 23.0571
639 1 1 0 1 -4.53137 3.47526 5.62319
640 1 1 0 1 2.30362 7.57921 1.7477
641 1 1 0 1 1.77725 5.40757 1.90527
642 1 1 0 1 -0.170802 8.10385 1.38701
643 1 1 0 1 -2.77566 11.9458 2.94322
644 1 1 0 1 -3.12508 5.06768 3.1986
645 1 1 0 1 -3.9405 8.51661 5.38429
646 1 1 0 1 -0.143216 2.74857 8.6157
647 1 1 0 1 -2.85558 9.45154 1.29487
648 1 1 0 1 -6.22384 10.2079 9.96563
649 1 1 0 1 -0.494698 11.0838 6.91639
650 1 1 0 1 2.52682 9.84218 11.3308
651 1 1 0 1 2.66347 10.1834 7.57071
652 1 1 0 1 -1.58614 13.9356 16.5849
653 1 1 0 1 -5.32965 15.3372 14.7585
654 1 1 0 1 1.3738 8.92964 20.9919
655 1 1 0 1 -2.52355 7.19369 13.4791
656 1 1 0 1 -5.0128 4.07868 17.5092
657 1 1 0 1 1.78199 3.44553 18.1012
658 1 1 0 1 3.30107 9.47715 23.1704
659 1 1 0 1 -5.05522 6.56447 15.0691
660 1 1 0 1 0.802677 8.09389 20.6766
661 1 1 0 1 -3.35413 9.10259 0.264868
662 1 1 0 1 -1.21837 10.721 -1.10412
663 1 1 0 1 -6.18104 5.14647 3.13253
664 1 1 0 1 -3.61087 10.356 6.91247
665 1 1 0 1 -6.80021 4.08177 5.17602
666 1 1 0 1 2.12088 10.1908 13.4401
667 1 1 0 1 -4.74827 7.29846 1.06363
668 1 1 0 1 -6.78086 5.77148 4.3812
669 1 1 0 1 -0.586514 8.1096 5.29017
670 1 1 0 1 -1.97953 8.90904 6.70538
671 1 1 0 1 0.52723 2.0316 8.11484
672 1 1 0 1 -2.91238 15.2226 14.7844
673 1 1 0 1 -2.73895 12.8172 14.3962
674 1 1 0 1 -1.13003 9.23461 15.5698
675 1 1 0 1 -1.96188 9.75223 18.7508
676 1 1 0 1 -6.68516 7.7967 16.916
677 1 1 0 1 -2.58523 12.515 21.1331
678 1 1 0 1 2.39092 5.12392 20.7986
679 1 1 0 1 -3.11347 8.5644 19.8428
680 1 1 0 1 -2.01921 6.34327 13.2665
681 1 1 0 1 -0.625345 9.89533 17.1511
682 1 1 0 1 3.42383 7.75562 22.3451
683 1 1 0 1 -0.172106 10.9748 5.32189
684 1 1 0 1 -1.53543 6.83444 1.25132
685 1 1 0 1 -1.86486 15.133 13.2868
686 1 1 0 1 -0.071985 7.69739 6.13065
687 1 1 0 1 2.82847 18.6445 4.04103
688 1 1 0 1 -0.274979 13.9171 6.4393
689 1 1 0 1 -1.57343 6.98506 7.36799
690 1 1 0 1 -1.39062 6.19986 11.7776
691 1 1 0 1 0.881341 1.9366 6.96094
692 1 1 0 1 2.98762 7.24553 10.0951
693 1 1 0 1 -0.357753 6.04897 16.9606
694 1 1 0 1 -4.27967 14.7868 16.5258
695 1 1 0 1 -4.39832 10.5362 16.3783
696 1 1 0 1 -0.738614 5.41038 18.4159
697 1 1 0 1 -5.40945 11.9722 16.2719
698 1 1 0 1 -7.41702 10.8743 22.333
699 1 1 0 1 0.108181 9.50668 20.5843
700 1 1 0 1 -1.79521 16.2927 15.3275
701 1 1 0 1 -0.191365 9.4177 19.448
702 1 1 0 1 -3.38713 4.41087 17.0299
703 1 1 0 1 0.579237 12.419 18.4178
704 1 1 0 1 -2.18112 19.3226 21.4376
705 1 1 0 1 -1.20573 11.7782 3.37087
706 1 1 0 1 -2.30729 7.40866 1.77717
707 1 1 0 1 -2.42698 22.1995 -1.11313
708 1 1 0 1 -0.466848 8.81857 -0.681508
709 1 1 0 1 -4.2507 9.27276 3.56273
710 1 1 0 1 -2.77339 13.3843 5.68285
711 1 1 0 1 -3.76531 9.0279 6.61341
712 1 1 0 1 -4.68411 10.5406 12.0513
713 1 1 0 1 -4.07607 12.8987 9.27593
714 1 1 0 1 1.72972 10.3606 7.36858
715 1 1 0 1 -5.18767 13.877 13.0032
716 1 1 0 1 -2.72228 14.607 16.7889
717 1 1 0 1 -4.3408 13.2656 12.201
718 1 1 0 1 -1.07452 12.6337 14.7514
719 1 1 0 1 -2.85027 9.4173 19.2034
720 1 1 0 1 0.552931 10.5099 17.6618
721 1 1 0 1 -4.47442 13.5371 14.8241
722 1 1 0 1 3.97802 14.7575 23.0206
723 1 1 0 1 -0.978676 7.14885 15.6288
724 1 1 0 1 -1.25869 16.3383 20.2639
725 1 1 0 1 0.434078 13.8371 25.3419
726 1 1 0 1 -2.0941 14.6624 25.6426
727 1 1 0 1 0.129064 13.6424 1.68187
728 1 1 0 1 -2.63733 12.2226 -4.15135
729 1 1 0 1 -5.16135 8.78256 -2.0985
730 1 1 0 1 0.454129 16.3094 1.73918
731 1 1 0 1 1.12886 15.1571 4.69828
732 1 1 0 1 3.66575 10.9248 2.18867
733 1 1 0 1 -4.42551 10.7713 5.50692
734 1 1 0 1 0.029475 6.23131 9.15856
735 1 1 0 1 -2.3311 15.3936 4.92045
736 1 1 0 1 -5.65517 12.3423 5.17796
737 1 1 0 1 2.33816 10.1383 12.4262
738 1 1 0 1 6.46126 15.1734 9.42702
739 1 1 0 1 -3.49235 9.104 12.4099
740 1 1 0 1 -1.96528 11.8591 20.3486
741 1 1 0 1 -0.965872 8.17398 16.1268
742 1 1 0 1 0.687884 8.31999 21.6208
743 1 1 0 1 -0.546539 9.67728 22.5082
744 1 1 0 1 0.572219 12.0934 26.2944
745 1 1 0 1 0.645687 9.34054 22.0591
746 1 1 0 1 -1.77941 9.1583 20.9978
747 1 1 0 1 -0.947181 13.0503 23.8512
748 1 1 0 1 0.352105 12.3557 23.5164
749 1 1 0 1 -0.082083 15.7675 6.42664
750 1 1 0 1 -0.2241 8.02329 4.34087
751 1 1 0 1 -6.56157 13.0665 3.86047
752 1 1 0 1 -0.823079 17.1779 1.63796
753 1 1 0 1 0.0217233 13.2497 5.43017
754 1 1 0 1 0.097693 9.07292 1.06504
755 1 1 0 1 2.46976 16.3886 4.16962
756 1 1 0 1 -5.50348 19.6575 3.55983
757 1 1 0 1 -0.854378 13.014 12.8029
758 1 1 0 1 -1.0358 12.3578 11.9719
759 1 1 0 1 -6.50085 8.78531 10.9494
760 1 1 0 1 1.65718 7.98144 14.4186
761 1 1 0 1 -0.315985 15.5339 16.0618
762 1 1 0 1 -2.69879 15.2292 10.554
763 1 1 0 1 -0.634295 15.7515 12.1552
764 1 1 0 1 -2.83418 16.0762 15.5643
765 1 1 0 1 -0.483028 13.6587 21.2333
766 1 1 0 1 -0.725372 11.578 15.9565
767 1 1 0 1 -3.85594 14.3678 21.5447
768 1 1 0 1 -2.7894 11.4577 22.916
769 1 1 0 1 3.67391 9.59763 21.9519
770 1 1 0 1 -3.61599 15.993 25.452
771 1 1 0 1 -2.56622 16.5103 4.39659
772 1 1 0 1 -2.37661 12.1967 10.1837
773 1 1 0 1 -2.59841 13.8022 3.42205
774 1 1 0 1 1.46218 13.6808 8.34304
775 1 1 0 1 -7.03166 14.6155 1.48039
776 1 1 0 1 0.4165 12.5343 6.4213
777 1 1 0 1 -2.30114 17.9242 7.95657
778 1 1 0 1 -1.47451 13.4673 7.06039
779 1 1 0 1 0.592588 14.8999 15.3544
780 1 1 0 1 -4.03391 16.8832 11.284
781 1 1 0 1 1.56734 12.8255 18.0308
782 1 1 0 1 -4.24296 16.0134 16.1258
783 1 1 0 1 -6.76009 20.2183 14.0635
784 1 1 0 1 -1.39206 17.7006 19.3083
785 1 1 0 1 -4.76286 16.9016 16.3903
786 1 1 0 1 -2.90096 13.9795 21.801
787 1 1 0 1 3.56091 15.1537 19.9807
788 1 1 0 1 -7.35798 18.3337 15.9489
789 1 1 0 1 -3.18136 17.8825 19.2404
790 1 1 0 1 2.41654 12.5777 24.013
791 1 1 0 1 1.55952 12.6529 19.3465
792 1 1 0 1 1.46089 8.73121 22.5874
793 1 1 0 1 -7.23792 12.2674 1.47735
794 1 1 0 1 3.15154 17.5443 3.97295
795 1 1 0 1 1.39381 15.789 -0.302004
796 1 1 0 1 -1.27328 18.7939 6.48562
797 1 1 0 1 -4.41279 17.9788 4.90848
798 1 1 0 1 -5.67881 17.3423 2.78191
799 1 1 0 1 -3.16873 16.7789 8.55906
800 1 1 0 1 2.9494 6.71742 4.61961
801 1 1 0 1 3.78788 12.4267 12.6459
802 1 1 0 1 -2.88808 17.0597 10.5213
803 1 1 0 1 -3.26182 15.5488 16.605
804 1 1 0 1 -1.83971 14.9533 12.0026
805 1 1 0 1 -2.97445 15.9945 17.539
806 1 1 0 1 2.41327 8.51451 8.33398
807 1 1 0 1 -3.77761 16.6313 17.0437
808 1 1 0 1 1.43178 23.3207 11.1863
809 1 1 0 1 -5.58357 17.7125 15.7386
810 1 1 0 1 -0.754199 17.3142 24.8454