ITEM: TIMESTEP
29000
ITEM: NUMBER OF ATOMS
6752
ITEM: BOX BOUNDS pp pp pp
0.0000000000000000e+00 2.2000000000000000e+01
0.0000000000000000e+00 2.2000000000000000e+01
0.0000000000000000e+00 2.2000000000000000e+01
ITEM: ATOMS id mol type q mass xu yu zu
1 1 1 0 1 -4.49824 -7.54712 4.12857
2 1 1 0 1 -1.63897 6.51633 -3.65771
3 1 1 0 1 -3.58493 -0.273948 0.687843
4 1 1 0 1 -9.20117 1.73051 3.61529
5 1 1 0 1 5.27255 8.65362 1.80232
6 1 1 0 1 -16.5266 -2.77223 8.09303
7 1 1 0 1 3.88293 7.26315 6.99212
8 1 1 0 1 3.18021 -5.01414 15.0774
9 1 1 0 1 0.580711 -2.84467 11.0831
10 1 1 0 1 -7.82067 -4.61255 12.7534
11 1 1 0 1 2.76002 -4.89681 -0.153721
12 1 1 0 1 -4.83493 -4.02495 12.7827
13 1 1 0 1 7.44579 4.23478 11.6844
14 1 1 0 1 -2.55133 10.8629 8.29888
15 1 1 0 1 -7.26805 3.97115 9.27964
16 1 1 0 1 -4.22777 -4.9381 15.8569
17 1 1 0 1 -1.22843 -4.3903 14.9933
18 1 1 0 1 -7.29853 -8.18598 24.6912
19 1 1 0 1 -5.67028 3.09881 16.9968
20 1 1 0 1 -8.02584 3.93188 22.0285
21 1 1 0 1 -6.05277 3.87195 16.396
22 1 1 0 1 -0.445395 8.015 18.8108
23 1 1 0 1 -12.4083 -1.61838 7.86781
24 1 1 0 1 -9.87913 6.04712 2.43578
25 1 1 0 1 -2.14013 1.02907 -6.76484
26 1 1 0 1 1.56836 -5.49239 4.42375
27 1 1 0 1 -5.36364 -0.378032 11.206
28 1 1 0 1 -3.11516 1.65989 -1.33584
29 1 1 0 1 -2.54206 -3.58134 16.6029
30 1 1 0 1 -3.45461 1.35155 19.7449
31 1 1 0 1 -3.86911 9.93518 8.1834
32 1 1 0 1 -4.5194 -3.56217 5.5965
33 1 1 0 1 -8.94682 -1.73683 11.1032
34 1 1 0 1 -4.41688 7.06119 13.96
35 1 1 0 1 0.843849 7.46128 13.5529
36 1 1 0 1 5.61891 1.1696 7.26412
37 1 1 0 1 -2.37031 -0.142719 15.8549
38 1 1 0 1 2.03358 1.68914 24.2062
39 1 1 0 1 -2.63454 6.14131 8.08658
40 1 1 0 1 -2.67811 5.45748 17.9877
41 1 1 0 1 -4.76077 -2.58573 15.802
42 1 1 0 1 -5.58431 1.16702 24.3398
43 1 1 0 1 -3.17657 8.71686 16.9909
44 1 1 0 1 -5.95117 8.22456 15.8056
45 1 1 0 1 -12.2809 7.01574 1.41146
46 1 1 0 1 -6.48865 2.3514 7.04301
47 1 1 0 1 -6.14075 -1.06811 4.85045
48 1 1 0 1 -7.13725 12.8826 -0.362334
49 1 1 0 1 -9.52019 7.77265 1.84241
50 1 1 0 1 -5.65686 5.5069 -1.12733
51 1 1 0 1 0.394939 0.806647 1.79196
52 1 1 0 1 0.997769 4.00071 15.7966
53 1 1 0 1 -3.4551 -1.04004 3.15685
54 1 1 0 1 -6.24477 -3.35273 21.07
55 1 1 0 1 -2.52803 -0.0644568 7.42665
56 1 1 0 1 -3.78587 -0.494819 5.89361
57 1 1 0 1 -6.43298 10.8888 16.7907
58 1 1 0 1 -3.64695 9.69486 12.453
59 1 1 0 1 -4.86644 3.08553 8.48462
60 1 1 0 1 -0.398894 1.00885 24.3513
61 1 1 0 1 -5.35295 9.20164 15.7253
62 1 1 0 1 2.26769 2.81243 24.2021
63 1 1 0 1 0.381614 10.7854 4.57654
64 1 1 0 1 -1.37966 0.649788 13.5512
65 1 1 0 1 -12.05 -3.53334 19.0717
66 1 1 0 1 -3.93472 6.41821 26.1165
67 1 1 0 1 -5.49826 -5.6425 -3.91336
68 1 1 0 1 -5.39385 5.14026 -10.2585
69 1 1 0 1 -3.4998 6.26961 1.7567
70 1 1 0 1 -0.878768 10.5202 2.12513
71 1 1 0 1 0.591672 1.14616 4.92347
72 1 1 0 1 -13.6783 6.57523 -0.251737
73 1 1 0 1 -0.0297154 1.06601 4.02817
74 1 1 0 1 -2.51221 0.811741 16.339
75 1 1 0 1 -0.0700545 0.127086 7.03623
76 1 1 0 1 -0.151857 -3.0903 12.1889
77 1 1 0 1 -8.94492 -3.08215 7.89417
78 1 1 0 1 0.0787662 3.43743 11.7852
79 1 1 0 1 0.426129 5.35289 13.2749
80 1 1 0 1 0.413783 -4.35733 10.9301
81 1 1 0 1 -2.23383 8.27673 17.2388
82 1 1 0 1 -3.08834 -5.11655 12.6801
83 1 1 0 1 -4.91373 0.100999 18.1239
84 1 1 0 1 2.62736 6.35095 13.8593
85 1 1 0 1 -4.66781 -2.86984 24.2227
86 1 1 0 1 -3.04979 -5.32312 18.1277
87 1 1 0 1 -1.04389 5.656 22.1759
88 1 1 0 1 -3.88678 5.52272 16.6179
89 1 1 0 1 -5.09793 9.65437 2.77209
90 1 1 0 1 -0.332726 9.7397 9.41763
91 1 1 0 1 -1.61214 -1.97102 9.95465
92 1 1 0 1 1.32413 7.21907 2.22778
93 1 1 0 1 -0.301174 8.59127 1.8856
94 1 1 0 1 -1.29044 -4.06736 2.00424
95 1 1 0 1 -2.38051 9.11979 7.42166
96 1 1 0 1 1.10469 3.15182 0.649447
97 1 1 0 1 -6.10746 9.00197 9.97736
98 1 1 0 1 4.53349 5.7065 8.63088
99 1 1 0 1 -0.578908 8.17213 3.12579
100 1 1 0 1 0.137651 2.34692 2.16186
101 1 1 0 1 -7.06372 2.8449 9.23783
102 1 1 0 1 -4.01623 3.61986 9.77549
103 1 1 0 1 -7.33179 9.21676 11.1781
104 1 1 0 1 -2.93467 16.3604 14.856
105 1 1 0 1 -1.7925 2.77623 2.56878
106 1 1 0 1 0.655385 4.6825 19.66
107 1 1 0 1 -8.2269 8.288 15.9276
108 1 1 0 1 6.12089 8.13363 14.2358
109 1 1 0 1 -11.6554 4.42987 24.0719
110 1 1 0 1 -6.99766 5.46382 25.0299
111 1 1 0 1 -7.57984 1.70739 2.93306
112 1 1 0 1 -3.88441 8.58963 -4.11591
113 1 1 0 1 -3.99399 6.96501 17.2108
114 1 1 0 1 2.16919 8.09644 4.56878
115 1 1 0 1 -8.06633 12.0244 1.53847
116 1 1 0 1 -0.521805 13.5849 10.9461
117 1 1 0 1 -4.41475 8.73026 2.68043
118 1 1 0 1 -2.35596 3.52883 1.73805
119 1 1 0 1 -7.4778 5.54864 10.9211
120 1 1 0 1 -3.20131 3.27021 5.64346
121 1 1 0 1 -0.857201 1.87646 2.26593
122 1 1 0 1 1.15765 3.60966 7.65832
123 1 1 0 1 -4.37213 1.54491 11.4813
124 1 1 0 1 -9.35206 11.1588 15.4221
125 1 1 0 1 -8.6728 7.61299 5.08026
126 1 1 0 1 -4.76617 5.58091 23.1333
127 1 1 0 1 0.111699 9.59369 15.201
128 1 1 0 1 -10.3862 8.42642 12.0157
129 1 1 0 1 -4.92745 6.59526 25.7263
130 1 1 0 1 -4.3369 8.31018 11.0038
131 1 1 0 1 -11.9805 2.67612 6.37214
132 1 1 0 1 -6.24693 2.61649 25.9632
133 1 1 0 1 2.124 6.97346 3.24355
134 1 1 0 1 -7.59404 8.82985 7.90059
135 1 1 0 1 -5.06272 0.141572 6.23456
136 1 1 0 1 0.152731 17.5865 2.65068
137 1 1 0 1 -9.58202 4.64815 9.04688
138 1 1 0 1 -10.8225 11.3145 18.5442
139 1 1 0 1 2.86449 3.37439 5.10562
140 1 1 0 1 -12.0223 12.4871 -0.361815
141 1 1 0 1 4.15262 7.2081 0.0075631
142 1 1 0 1 -5.1312 2.06568 8.83796
143 1 1 0 1 0.0444042 -0.427901 10.9954
144 1 1 0 1 -0.250842 -0.119616 9.96355
145 1 1 0 1 -7.33812 10.6317 16.8778
146 1 1 0 1 -9.28162 10.1886 20.0719
147 1 1 0 1 0.553046 24.9293 15.7125
148 1 1 0 1 -3.7832 13.3973 12.8401
149 1 1 0 1 -9.40621 0.161683 19.9603
150 1 1 0 1 -8.22962 6.64064 2.66642
151 1 1 0 1 -6.06997 6.89006 19.0946
152 1 1 0 1 -3.68757 -0.653815 19.8646
153 1 1 0 1 -5.79975 11.0128 22.7462
154 1 1 0 1 -5.03343 4.48476 23.1178
155 1 1 0 1 -4.89664 7.38762 -5.21121
156 1 1 0 1 -1.22082 5.71721 -2.76254
157 1 1 0 1 -6.27219 13.3519 3.30512
158 1 1 0 1 -4.64928 16.0723 3.83428
159 1 1 0 1 -7.37957 6.85512 1.37383
160 1 1 0 1 -3.49633 5.01898 3.24962
161 1 1 0 1 -0.223368 11.7765 4.78681
162 1 1 0 1 -5.46008 8.71236 7.95044
163 1 1 0 1 1.13658 8.467 1.84642
164 1 1 0 1 -7.45277 7.39584 12.4147
165 1 1 0 1 -0.438332 1.60211 13.0778
166 1 1 0 1 -3.71815 15.603 23.0628
167 1 1 0 1 -6.26128 17.0579 15.7122
168 1 1 0 1 -9.20587 7.37761 22.4942
169 1 1 0 1 -11.1697 14.8953 14.4589
170 1 1 0 1 5.30734 10.5061 21.8691
171 1 1 0 1 -5.03269 14.4441 23.6826
172 1 1 0 1 -0.0366781 8.5005 19.8357
173 1 1 0 1 -3.66948 1.79711 17.3907
174 1 1 0 1 5.31619 7.14488 22.2204
175 1 1 0 1 -4.79812 9.32516 17.522
176 1 1 0 1 1.34156 3.37544 25.0061
177 1 1 0 1 -5.47449 4.36995 -0.373522
178 1 1 0 1 0.472793 19.7901 7.9866
179 1 1 0 1 -6.85278 15.1123 3.06652
180 1 1 0 1 -1.22628 18.0153 -2.43834
181 1 1 0 1 -11.1348 15.6885 1.66906
182 1 1 0 1 -7.64603 14.0751 5.68729
183 1 1 0 1 -5.80179 17.9287 0.884913
184 1 1 0 1 -0.791718 9.71045 7.45129
185 1 1 0 1 -9.09957 0.655117 9.00923
186 1 1 0 1 -13.9109 14.9742 12.7253
187 1 1 0 1 -7.48699 16.0863 13.4701
188 1 1 0 1 0.353137 -0.6236 13.7608
189 1 1 0 1 -7.98846 11.3495 18.724
190 1 1 0 1 -5.72157 3.64306 15.3219
191 1 1 0 1 -5.19679 8.89703 25.502
192 1 1 0 1 -5.04129 5.43601 10.6232
193 1 1 0 1 -1.54145 4.29928 20.754
194 1 1 0 1 5.13668 9.8473 18.3196
195 1 1 0 1 -7.43874 5.89381 13.3004
196 1 1 0 1 -2.32376 8.51393 20.3664
197 1 1 0 1 -2.31045 3.51697 16.3614
198 1 1 0 1 7.4377 5.53315 25.6689
199 1 1 0 1 -1.45871 12.6956 2.20978
200 1 1 0 1 2.88661 8.34511 7.60777
201 1 1 0 1 -1.19038 18.5677 -3.83062
202 1 1 0 1 -2.11932 2.00495 4.35846
203 1 1 0 1 -5.75493 9.45741 4.59223
204 1 1 0 1 0.781628 4.85452 15.1357
205 1 1 0 1 5.41115 3.7044 -0.04626
206 1 1 0 1 2.49174 8.40746 5.63546
207 1 1 0 1 -3.48667 7.4917 2.99676
208 1 1 0 1 -3.07 2.88078 7.55859
209 1 1 0 1 -1.02365 2.00786 0.627314
210 1 1 0 1 -7.19845 5.41708 6.04358
211 1 1 0 1 -2.66633 7.56735 5.88314
212 1 1 0 1 -13.1688 9.53466 13.3292
213 1 1 0 1 -5.39992 12.8317 25.5534
214 1 1 0 1 -14.7454 24.8814 18.333
215 1 1 0 1 -7.13426 16.4288 12.3796
216 1 1 0 1 -10.3166 12.7029 17.7911
217 1 1 0 1 -10.8457 17.0753 26.903
218 1 1 0 1 1.07969 5.11405 23.8821
219 1 1 0 1 3.56592 12.2345 26.2441
220 1 1 0 1 4.15375 17.4448 21.447
221 1 1 0 1 12.8335 6.98705 -0.805838
222 1 1 0 1 -6.17355 15.3442 -2.6351
223 1 1 0 1 -10.9574 10.9344 1.72235
224 1 1 0 1 -6.5852 8.07765 -5.21418
225 1 1 0 1 -7.98305 22.0433 6.35914
226 1 1 0 1 -10.7112 9.67795 7.59405
227 1 1 0 1 -10.0244 14.6754 8.82821
228 1 1 0 1 -8.32297 16.2268 1.82866
229 1 1 0 1 7.58531 9.25207 11.5252
230 1 1 0 1 -3.68492 15.6394 10.0582
231 1 1 0 1 -3.12946 7.9581 13.334
232 1 1 0 1 0.0638248 -1.55032 11.6896
233 1 1 0 1 -0.243766 8.64894 14.9033
234 1 1 0 1 -10.4528 14.5135 13.6941
235 1 1 0 1 -5.6136 10.0335 16.6144
236 1 1 0 1 -6.67344 6.66367 12.236
237 1 1 0 1 -10.971 14.3477 17.4292
238 1 1 0 1 -7.19793 11.5143 15.425
239 1 1 0 1 -1.64676 9.73948 13.0274
240 1 1 0 1 -5.27755 14.4535 9.29878
241 1 1 0 1 -4.30901 6.15324 18.0404
242 1 1 0 1 -4.58452 0.129584 22.1132
243 1 1 0 1 -4.35294 9.4622 -2.32878
244 1 1 0 1 -2.77738 9.6186 -4.29996
245 1 1 0 1 -4.70238 15.7353 -0.568259
246 1 1 0 1 -2.33011 10.1978 0.163304
247 1 1 0 1 -6.4967 11.8871 7.3683
248 1 1 0 1 -1.38281 -3.1195 9.6241
249 1 1 0 1 -9.50836 11.7285 3.16201
250 1 1 0 1 1.06393 6.82116 3.17774
251 1 1 0 1 -7.59397 6.92373 5.54752
252 1 1 0 1 -1.72793 3.60178 5.83093
253 1 1 0 1 0.792124 0.586606 17.4813
254 1 1 0 1 -0.062029 10.2739 20.4133
255 1 1 0 1 -9.5011 2.93785 8.40141
256 1 1 0 1 -8.1735 17.8489 8.91686
257 1 1 0 1 1.80323 14.8848 17.8904
258 1 1 0 1 1.00763 12.9783 19.7939
259 1 1 0 1 -4.8182 12.9191 19.9817
260 1 1 0 1 -0.892677 13.6061 19.5588
261 1 1 0 1 -3.78458 9.54304 17.5669
262 1 1 0 1 -8.15001 10.1054 18.5977
263 1 1 0 1 5.25217 14.8479 19.5421
264 1 1 0 1 -0.836175 16.9502 23.9111
265 1 1 0 1 -4.89574 13.6469 0.1866
266 1 1 0 1 7.24146 20.6836 7.36414
267 1 1 0 1 -0.0382926 15.7048 8.23399
268 1 1 0 1 -5.17061 3.19352 -2.89319
269 1 1 0 1 0.0182166 8.71438 8.91875
270 1 1 0 1 -3.10389 15.895 -0.434378
271 1 1 0 1 -4.71215 7.8535 9.24289
272 1 1 0 1 -8.43447 9.89805 13.9519
273 1 1 0 1 -1.47187 15.1622 9.72961
274 1 1 0 1 -11.0902 8.98027 6.93678
275 1 1 0 1 -8.35189 -0.259334 12.1074
276 1 1 0 1 0.921379 16.3839 9.95829
277 1 1 0 1 -8.01253 8.32203 12.5764
278 1 1 0 1 1.91381 11.6496 19.7426
279 1 1 0 1 -3.49973 18.1511 14.8721
280 1 1 0 1 -3.2742 12.6914 9.15152
281 1 1 0 1 -0.830556 12.4251 25.7467
282 1 1 0 1 -2.09577 13.616 8.16225
283 1 1 0 1 -0.0846221 13.2549 15.0134
284 1 1 0 1 -6.09218 16.3807 12.8551
285 1 1 0 1 -7.32825 0.80519 17.6958
286 1 1 0 1 -6.79272 10.3194 23.2327
287 1 1 0 1 -7.06887 22.6862 4.60111
288 1 1 0 1 -5.7535 14.0545 -2.57644
289 1 1 0 1 -10.1062 -0.0473866 5.73908
290 1 1 0 1 -3.9751 9.19694 5.46489
291 1 1 0 1 -9.30376 0.464393 10.0079
292 1 1 0 1 -7.11057 12.7411 10.548
293 1 1 0 1 1.5321 8.56369 7.36838
294 1 1 0 1 -2.1312 9.53004 8.72171
295 1 1 0 1 -4.8301 7.50903 6.0867
296 1 1 0 1 -1.13353 13.1158 13.8867
297 1 1 0 1 -8.39769 11.6137 4.53964
298 1 1 0 1 -7.92086 4.67842 19.5883
299 1 1 0 1 1.22721 17.1465 13.8811
300 1 1 0 1 1.82974 19.9195 18.0946
301 1 1 0 1 0.434036 17.5474 20.5073
302 1 1 0 1 -2.44993 14.4049 13.0484
303 1 1 0 1 -13.2159 13.0044 4.46854
304 1 1 0 1 3.41488 2.44939 9.73771
305 1 1 0 1 8.88383 11.7703 22.3537
306 1 1 0 1 -3.0494 13.3942 23.4281
307 1 1 0 1 1.38913 16.7319 22.1625
308 1 1 0 1 4.52513 27.9009 26.9576
309 1 1 0 1 0.581848 12.3131 5.61196
310 1 1 0 1 2.65263 12.7406 6.29245
311 1 1 0 1 -13.6381 10.2238 -4.17719
312 1 1 0 1 -8.05515 6.12022 5.92711
313 1 1 0 1 -13.1973 14.1523 4.8341
314 1 1 0 1 -3.19529 8.80481 2.02472
315 1 1 0 1 4.25154 10.5288 6.06119
316 1 1 0 1 -11.112 22.0412 9.5609
317 1 1 0 1 -2.48134 15.2832 9.42346
318 1 1 0 1 -5.05854 19.0206 11.2454
319 1 1 0 1 -5.94695 10.5901 5.13606
320 1 1 0 1 4.28642 18.4027 5.05539
321 1 1 0 1 -2.51978 14.3761 17.406
322 1 1 0 1 -3.48187 12.768 20.8234
323 1 1 0 1 -4.06731 14.3572 5.77475
324 1 1 0 1 -0.503816 9.92792 4.63708
325 1 1 0 1 1.09022 10.3922 7.79882
326 1 1 0 1 -0.864031 15.2085 16.9044
327 1 1 0 1 -9.03135 12.4635 20.2698
328 1 1 0 1 1.14602 18.4701 23.1234
329 1 1 0 1 -0.67902 15.4847 24.0439
330 1 1 0 1 4.09954 19.9414 22.5782
331 1 1 0 1 -8.71857 13.4532 8.09281
332 1 1 0 1 -2.6288 20.8033 2.63378
333 1 1 0 1 1.44763 6.82357 4.13593
334 1 1 0 1 -5.73397 16.9879 0.353826
335 1 1 0 1 1.88071 12.0711 10.8747
336 1 1 0 1 -10.3074 16.287 1.47993
337 1 1 0 1 -4.3141 11.1697 2.80467
338 1 1 0 1 -4.67484 11.2117 5.81027
339 1 1 0 1 -10.8587 11.1686 5.6848
340 1 1 0 1 -5.1817 6.87757 11.0154
341 1 1 0 1 -3.34967 9.04931 6.95074
342 1 1 0 1 -2.30764 16.7052 7.36994
343 1 1 0 1 4.83401 8.57067 5.97255
344 1 1 0 1 -8.85313 9.23519 12.8211
345 1 1 0 1 -4.71784 20.1387 12.8937
346 1 1 0 1 -0.802351 18.8763 21.244
347 1 1 0 1 0.762192 22.9113 13.0408
348 1 1 0 1 -5.45341 15.2849 16.4637
349 1 1 0 1 1.009 21.0697 15.3842
350 1 1 0 1 -4.04202 13.4714 15.6451
351 1 1 0 1 -8.98749 20.2738 22.571
352 1 1 0 1 0.735876 16.9263 28.7959
353 1 1 0 1 -8.94981 17.9486 -4.67343
354 1 1 0 1 3.30574 17.0074 1.94372
355 1 1 0 1 -2.32759 10.5829 5.71852
356 1 1 0 1 -6.16699 11.1188 4.21251
357 1 1 0 1 1.6315 17.7857 0.0779053
358 1 1 0 1 -5.66984 16.7369 4.69988
359 1 1 0 1 -9.55505 13.4888 16.3266
360 1 1 0 1 0.0745314 12.2066 1.15201
361 1 1 0 1 0.031886 16.076 11.837
362 1 1 0 1 -1.01421 12.8967 9.45159
363 1 1 0 1 -0.339378 11.5866 10.9411
364 1 1 0 1 6.34049 7.21262 7.59904
365 1 1 0 1 -2.07906 -0.680835 5.91396
366 1 1 0 1 -3.36043 11.2592 13.6371
367 1 1 0 1 -1.5967 7.37588 14.1006
368 1 1 0 1 -3.86313 18.9006 15.5811
369 1 1 0 1 -4.05975 13.6175 10.2381
370 1 1 0 1 -2.41504 2.19372 7.13062
371 1 1 0 1 -10.4818 19.3722 24.8444
372 1 1 0 1 -2.29401 19.1566 21.4866
373 1 1 0 1 -6.0276 12.6766 15.0043
374 1 1 0 1 0.765308 12.3553 26.3997
375 1 1 0 1 -7.91631 2.24184 8.74661
376 1 1 0 1 -9.3012 15.6905 1.5135
377 1 1 0 1 -12.2871 6.69858 -0.90625
378 1 1 0 1 -10.0939 16.1735 9.97171
379 1 1 0 1 0.980549 14.5737 -6.94939
380 1 1 0 1 -2.16914 15.0219 2.28578
381 1 1 0 1 -7.87147 14.9626 8.05045
382 1 1 0 1 -15.0343 17.274 16.0379
383 1 1 0 1 -2.76109 22.5943 9.78685
384 1 1 0 1 -1.09267 9.03013 13.4269
385 1 1 0 1 -9.68381 19.147 5.79047
386 1 1 0 1 -3.28115 10.8171 11.8262
387 1 1 0 1 -5.80661 12.987 19.7436
388 1 1 0 1 -5.31323 15.9132 14.6753
389 1 1 0 1 -3.4479 19.6729 17.0534
390 1 1 0 1 0.0402267 13.1331 19.0107
391 1 1 0 1 -5.64641 21.8343 19.3405
392 1 1 0 1 -8.5164 18.8569 9.64777
393 1 1 0 1 -5.73004 9.96129 11.9699
394 1 1 0 1 -2.78213 18.855 22.5111
395 1 1 0 1 -11.9035 16.288 10.2717
396 1 1 0 1 -1.80838 5.41545 24.0944
397 1 1 0 1 -3.2065 18.8381 -1.01204
398 1 1 0 1 -2.79118 25.4707 -1.45483
399 1 1 0 1 -1.95905 14.2812 0.137262
400 1 1 0 1 -7.85766 13.0481 2.24189
401 1 1 0 1 -4.52127 8.78219 12.973
402 1 1 0 1 -5.30943 10.9805 14.4113
403 1 1 0 1 0.0227698 13.3984 10.0862
404 1 1 0 1 -3.01766 30.6295 5.12218
405 1 1 0 1 -11.7784 13.9098 5.99889
406 1 1 0 1 -8.14233 19.03 8.6621
407 1 1 0 1 -4.54393 18.1129 7.31435
408 1 1 0 1 -9.04378 20.498 14.3822
409 1 1 0 1 -6.57587 12.1135 12.9939
410 1 1 0 1 -5.741 2.55258 6.3235
411 1 1 0 1 6.25351 17.9096 5.75097
412 1 1 0 1 -15.6481 12.925 4.52096
413 1 1 0 1 -13.3531 11.9621 18.4605
414 1 1 0 1 -4.51519 9.85148 21.4013
415 1 1 0 1 0.907631 16.0455 28.422
416 1 1 0 1 -4.48096 16.253 29.8359
417 1 1 0 1 2.04759 21.6849 24.0839
418 1 1 0 1 -0.242151 16.306 26.9826
419 1 1 0 1 -8.9572 18.0812 1.67738
420 1 1 0 1 -4.07587 25.677 18.7572
421 1 1 0 1 -5.93543 15.7162 7.93731
422 1 1 0 1 -4.83827 4.4474 4.33285
423 1 1 0 1 0.384744 31.0872 11.1961
424 1 1 0 1 -2.24625 16.0366 14.1866
425 1 1 0 1 -3.99919 12.9482 1.0112
426 1 1 0 1 -7.03328 17.6225 -4.92136
427 1 1 0 1 -4.63514 23.6367 4.83511
428 1 1 0 1 3.73277 12.5303 1.57226
429 1 1 0 1 -7.48491 26.984 7.84256
430 1 1 0 1 1.37263 15.3385 7.77649
431 1 1 0 1 -9.37131 13.825 13.0188
432 1 1 0 1 -2.81282 26.2805 7.62022
433 1 1 0 1 -3.18466 20.1555 16.0439
434 1 1 0 1 -5.3993 6.29865 9.87375
435 1 1 0 1 -5.05667 14.7558 21.4783
436 1 1 0 1 -5.19539 11.5203 12.0312
437 1 1 0 1 -0.271287 22.5765 19.2185
438 1 1 0 1 -7.47435 15.4859 17.7302
439 1 1 0 1 -5.21614 21.2552 21.2887
440 1 1 0 1 -5.74898 13.4925 24.066
441 1 1 0 1 -4.68889 16.3051 -1.85267
442 1 1 0 1 -7.27466 19.0526 6.45272
443 1 1 0 1 -2.03511 12.8977 -2.77055
444 1 1 0 1 -1.04587 24.4817 3.6302
445 1 1 0 1 -2.85663 19.7403 0.947965
446 1 1 0 1 4.94813 8.10447 13.5936
447 1 1 0 1 -1.46304 12.2926 5.1819
448 1 1 0 1 -3.09134 14.6334 8.08426
449 1 1 0 1 0.721845 16.8124 11.5886
450 1 1 0 1 -3.61803 10.4107 22.3777
451 1 1 0 1 -7.36206 14.2991 12.0303
452 1 1 0 1 -6.20993 21.2752 18.7309
453 1 1 0 1 -3.79241 15.1689 15.734
454 1 1 0 1 3.25761 22.5166 11.5879
455 1 1 0 1 -3.71065 2.98423 0.703293
456 1 1 0 1 -4.27824 21.5659 16.1843
457 1 1 0 1 -8.16596 17.229 18.8316
458 1 1 0 1 -11.4696 15.4766 16.7365
459 1 1 0 1 -10.1477 17.3248 16.2124
460 1 1 0 1 -2.00462 18.6198 20.354
461 1 1 0 1 2.28392 16.8019 11.8925
462 1 1 0 1 11.2865 24.2729 19.1938
463 1 1 0 1 1.90781 19.6186 -1.55788
464 1 1 0 1 -3.41893 23.3323 10.2092
465 1 1 0 1 7.73474 25.0879 -0.729532
466 1 1 0 1 -2.4108 28.0778 0.131371
467 1 1 0 1 -6.36215 22.1221 11.5267
468 1 1 0 1 -4.41641 22.8746 5.81219
469 1 1 0 1 -0.160953 17.0201 14.7034
470 1 1 0 1 0.221225 19.1984 14.1464
471 1 1 0 1 0.590162 7.96591 4.92888
472 1 1 0 1 4.31957 31.397 15.2807
473 1 1 0 1 -6.00804 19.541 10.117
474 1 1 0 1 0.493617 15.4044 13.7278
475 1 1 0 1 -0.566436 17.0016 15.7582
476 1 1 0 1 4.87261 29.3006 23.3284
477 1 1 0 1 2.20863 21.7832 14.2697
478 1 1 0 1 4.3572 24.0785 17.3024
479 1 1 0 1 -5.5782 33.3934 6.20578
480 1 1 0 1 4.27839 20.8765 17.7141
481 1 1 0 1 -0.940339 20.2037 17.8887
482 1 1 0 1 -2.80037 32.7263 17.0897
483 1 1 0 1 3.03374 19.9436 24.4501
484 1 1 0 1 -4.11965 19.3058 21.3104
485 1 1 0 1 -4.34386 -8.53258 2.11806
486 1 1 0 1 -3.79766 8.39122 -6.11605
487 1 1 0 1 -1.78014 2.52772 1.51342
488 1 1 0 1 -4.77528 -2.83331 4.58072
489 1 1 0 1 1.83843 2.5928 -2.53541
490 1 1 0 1 -8.76964 -2.12117 7.37188
491 1 1 0 1 -5.16739 1.8956 3.77419
492 1 1 0 1 -0.242627 -14.9968 11.7869
493 1 1 0 1 1.38619 1.7057 12.4861
494 1 1 0 1 -6.4938 1.70447 7.88141
495 1 1 0 1 -5.52041 -1.33863 17.3046
496 1 1 0 1 3.2535 5.94588 16.633
497 1 1 0 1 -3.013 -7.92696 14.8011
498 1 1 0 1 0.579191 7.92369 7.14396
499 1 1 0 1 0.873448 8.48226 8.34999
500 1 1 0 1 -3.04313 -6.66749 12.8762
501 1 1 0 1 3.32773 0.1465 8.69604
502 1 1 0 1 -1.67614 -8.81572 20.4346
503 1 1 0 1 -1.23535 6.17574 10.7771
504 1 1 0 1 0.436639 -4.29566 9.86513
505 1 1 0 1 -2.88652 -4.49581 13.4163
506 1 1 0 1 -2.1296 6.05773 12.6729
507 1 1 0 1 2.81196 1.42629 -2.88568
508 1 1 0 1 -1.61925 4.44245 1.66737
509 1 1 0 1 -4.20482 5.41943 2.46911
510 1 1 0 1 -13.2902 -7.49316 -3.3571
511 1 1 0 1 5.93204 2.12791 6.40407
512 1 1 0 1 -4.70318 17.2928 6.34542
513 1 1 0 1 -6.53167 0.150638 8.47661
514 1 1 0 1 -1.75959 -1.41032 -0.0155353
515 1 1 0 1 8.07933 9.14017 -1.59806
516 1 1 0 1 -3.50543 11.1087 7.7908
517 1 1 0 1 -1.95284 -0.808928 6.99355
518 1 1 0 1 1.26133 3.98224 6.45025
519 1 1 0 1 5.23744 0.798936 19.2935
520 1 1 0 1 -1.1165 -4.43799 9.75932
521 1 1 0 1 -1.87566 4.70773 9.81016
522 1 1 0 1 -4.0867 6.40194 9.87716
523 1 1 0 1 1.33733 1.07169 14.8718
524 1 1 0 1 0.953292 3.41429 14.4488
525 1 1 0 1 -2.44855 2.00526 25.2471
526 1 1 0 1 -0.0650715 -3.9494 26.2019
527 1 1 0 1 -0.0518383 9.11747 18.933
528 1 1 0 1 2.76654 0.970865 24.8167
529 1 1 0 1 8.25724 15.6049 10.0814
530 1 1 0 1 4.67521 -2.58776 -4.59168
531 1 1 0 1 4.24857 12.2579 -1.35344
532 1 1 0 1 -0.962003 -7.74518 5.952
533 1 1 0 1 -5.08792 5.94362 -3.07841
534 1 1 0 1 -1.82311 0.416671 3.49925
535 1 1 0 1 1.78058 7.84284 -2.41061
536 1 1 0 1 -7.64933 14.8966 0.832493
537 1 1 0 1 -0.186891 4.24415 8.98902
538 1 1 0 1 -2.60496 0.431971 11.9722
539 1 1 0 1 1.026 6.8386 5.60286
540 1 1 0 1 0.798924 7.18533 8.41947
541 1 1 0 1 -7.77156 7.29527 9.47783
542 1 1 0 1 -0.19647 7.43014 9.00901
543 1 1 0 1 -2.95787 8.16534 3.90937
544 1 1 0 1 1.45221 5.75355 5.61416
545 1 1 0 1 1.0803 10.6875 12.0591
546 1 1 0 1 -0.558075 -3.30151 13.5172
547 1 1 0 1 -1.42801 -2.74873 19.4877
548 1 1 0 1 1.32503 7.76678 25.7303
549 1 1 0 1 0.966551 3.08739 26.2377
550 1 1 0 1 -6.02894 9.25904 25.1136
551 1 1 0 1 -4.68304 5.40544 -6.14615
552 1 1 0 1 -8.58356 0.602334 -4.43646
553 1 1 0 1 -0.9016 5.04733 2.10966
554 1 1 0 1 2.7857 6.80856 -0.868635
555 1 1 0 1 -1.66274 4.47331 -8.02964
556 1 1 0 1 -1.70187 1.56623 5.33129
557 1 1 0 1 3.62462 10.9515 2.06452
558 1 1 0 1 0.905508 5.29279 7.58212
559 1 1 0 1 0.609445 -4.06 12.0883
560 1 1 0 1 -1.32666 -4.19329 -1.40115
561 1 1 0 1 0.65436 5.85208 14.9049
562 1 1 0 1 4.46891 7.80763 24.2542
563 1 1 0 1 -1.3984 0.259019 19.1567
564 1 1 0 1 -6.69984 -3.64043 10.7045
565 1 1 0 1 10.5186 6.93711 17.3654
566 1 1 0 1 3.77367 4.63779 9.52119
567 1 1 0 1 -4.17285 6.58222 15.786
568 1 1 0 1 5.58807 6.23217 14.2144
569 1 1 0 1 4.25336 3.15092 17.6068
570 1 1 0 1 -2.08202 9.3908 28.3466
571 1 1 0 1 6.53132 9.37052 21.0622
572 1 1 0 1 1.31029 -1.3511 20.7097
573 1 1 0 1 -0.681063 3.52128 -3.43232
574 1 1 0 1 -4.84572 0.0778211 1.6997
575 1 1 0 1 -5.21213 1.48674 -7.2623
576 1 1 0 1 -0.827437 3.60905 -2.05549
577 1 1 0 1 -8.66857 -1.5635 5.31103
578 1 1 0 1 0.0136141 10.2855 10.4031
579 1 1 0 1 -7.11641 3.95891 2.72834
580 1 1 0 1 -2.09779 1.51269 12.4101
581 1 1 0 1 -2.03241 8.28342 9.05731
582 1 1 0 1 0.732186 8.25938 6.119
583 1 1 0 1 -10.0811 11.7856 10.5117
584 1 1 0 1 -4.47368 8.49525 14.9552
585 1 1 0 1 -4.17522 2.06949 12.6346
586 1 1 0 1 3.30859 12.6733 17.0368
587 1 1 0 1 -5.96042 17.8494 13.9665
588 1 1 0 1 -6.46954 4.14527 18.3428
589 1 1 0 1 -4.10703 4.6015 13.1685
590 1 1 0 1 -6.90371 3.69418 14.7363
591 1 1 0 1 -8.93942 6.12978 11.011
592 1 1 0 1 -2.71406 -1.16111 17.3314
593 1 1 0 1 -4.05989 5.6063 14.3764
594 1 1 0 1 -11.5031 -2.93785 19.9416
595 1 1 0 1 -0.343747 -2.22548 -3.29978
596 1 1 0 1 -0.686538 10.0674 1.15093
597 1 1 0 1 -6.15187 1.24474 3.94211
598 1 1 0 1 2.10778 9.6369 -0.773379
599 1 1 0 1 -2.72252 10.7997 -0.537243
600 1 1 0 1 -1.57348 3.16919 7.15515
601 1 1 0 1 -7.63123 6.35502 3.50305
602 1 1 0 1 -5.42125 -7.73501 4.81799
603 1 1 0 1 0.116278 -6.90349 19.1958
604 1 1 0 1 12.7962 8.67787 17.5586
605 1 1 0 1 -7.46337 7.8493 4.84446
606 1 1 0 1 -4.84786 -0.877335 13.329
607 1 1 0 1 -6.78924 4.5149 6.15191
608 1 1 0 1 -0.332415 -4.38882 13.1604
609 1 1 0 1 3.41851 9.09612 13.2808
610 1 1 0 1 2.36583 11.3658 8.7103
611 1 1 0 1 -4.85302 4.39876 5.44731
612 1 1 0 1 -0.621951 4.06242 23.7046
613 1 1 0 1 1.54858 4.26082 16.6346
614 1 1 0 1 -0.702998 11.461 23.3776
615 1 1 0 1 -12.5894 3.25095 18.4941
616 1 1 0 1 -4.44324 10.3344 17.2311
617 1 1 0 1 -2.25103 0.278189 -3.38884
618 1 1 0 1 -11.5333 5.71612 2.32207
619 1 1 0 1 2.31381 19.3218 3.26992
620 1 1 0 1 2.21424 9.32183 5.19007
621 1 1 0 1 -1.73746 6.32652 5.19588
622 1 1 0 1 -6.7582 0.52512 -0.370419
623 1 1 0 1 1.36429 4.52142 2.68916
624 1 1 0 1 -4.7265 3.68144 -0.738277
625 1 1 0 1 -2.78997 1.44599 5.05505
626 1 1 0 1 -0.497022 5.151 6.13446
627 1 1 0 1 -6.55217 -6.14967 18.2282
628 1 1 0 1 4.21453 -2.62203 9.43567
629 1 1 0 1 2.63584 10.9603 20.4625
630 1 1 0 1 2.85268 12.1414 19.9347
631 1 1 0 1 3.05366 8.08536 14.9207
632 1 1 0 1 8.21957 9.26023 17.9913
633 1 1 0 1 -8.69435 10.7321 16.1397
634 1 1 0 1 -2.04814 2.72814 15.2028
635 1 1 0 1 1.0243 2.91082 18.7125
636 1 1 0 1 1.89812 1.42287 17.9555
637 1 1 0 1 -8.5519 3.04195 20.7291
638 1 1 0 1 -1.15569 4.33067 22.6338
639 1 1 0 1 -4.01377 -1.62678 9.68818
640 1 1 0 1 -2.16009 14.613 8.45836
641 1 1 0 1 11.5433 7.37786 -3.28512
642 1 1 0 1 1.7663 16.0946 13.6598
643 1 1 0 1 1.01556 10.1434 15.1703
644 1 1 0 1 -3.71828 8.40534 0.583125
645 1 1 0 1 -1.46518 3.95853 4.86868
646 1 1 0 1 3.8477 4.53316 7.07611
647 1 1 0 1 -6.83382 10.6462 -1.90078
648 1 1 0 1 -3.86099 11.3958 12.5999
649 1 1 0 1 2.21668 4.09479 1.95609
650 1 1 0 1 4.52125 6.76925 11.7035
651 1 1 0 1 0.825297 10.015 9.68789
652 1 1 0 1 -2.10706 13.4293 17.1626
653 1 1 0 1 -2.01059 17.6216 11.0172
654 1 1 0 1 -1.19627 8.80322 18.6095
655 1 1 0 1 1.85533 6.05663 2.69746
656 1 1 0 1 -3.25676 4.86017 11.4676
657 1 1 0 1 3.17194 7.22798 18.1847
658 1 1 0 1 -0.431095 11.122 21.0767
659 1 1 0 1 -8.11394 6.76093 13.7575
660 1 1 0 1 5.27667 8.44735 20.3436
661 1 1 0 1 -0.136601 5.59295 2.79454
662 1 1 0 1 -1.60326 11.2394 1.80968
663 1 1 0 1 -4.86564 7.91667 1.8223
664 1 1 0 1 -3.08317 9.69895 6.11502
665 1 1 0 1 -9.06102 0.265152 3.71197
666 1 1 0 1 8.6349 9.57015 9.84214
667 1 1 0 1 -5.35264 7.16288 -0.992673
668 1 1 0 1 -7.42268 2.72194 2.72079
669 1 1 0 1 8.42749 2.30554 2.23063
670 1 1 0 1 -3.32705 2.01389 8.57765
671 1 1 0 1 3.83718 3.15548 5.46097
672 1 1 0 1 -1.42379 18.3266 13.6939
673 1 1 0 1 -9.41922 17.7301 12.1865
674 1 1 0 1 0.566157 12.514 16.8954
675 1 1 0 1 -3.14882 7.45327 17.4365
676 1 1 0 1 -3.02092 -1.20556 15.2817
677 1 1 0 1 -0.503257 5.13352 16.8897
678 1 1 0 1 2.92977 7.87084 20.5372
679 1 1 0 1 -11.5002 8.66118 13.331
680 1 1 0 1 0.18234 3.44323 13.6464
681 1 1 0 1 -4.63756 8.83843 18.9039
682 1 1 0 1 9.08092 7.54234 25.8966
683 1 1 0 1 -1.79134 10.41 6.6173
684 1 1 0 1 -5.96573 8.07437 -0.238215
685 1 1 0 1 0.790324 10.7392 -0.0687681
686 1 1 0 1 -3.15239 5.06143 4.7851
687 1 1 0 1 -1.33662 14.9948 3.07194
688 1 1 0 1 -3.22432 15.3415 11.6157
689 1 1 0 1 -1.63842 2.7811 5.15141
690 1 1 0 1 3.37475 1.72139 12.205
691 1 1 0 1 0.611059 6.19672 2.39866
692 1 1 0 1 -5.87107 8.35263 9.173
693 1 1 0 1 -3.42133 5.33423 18.716
694 1 1 0 1 -8.49917 12.7753 13.0366
695 1 1 0 1 -1.53947 10.8904 15.602
696 1 1 0 1 -7.12494 5.42909 20.3915
697 1 1 0 1 -3.25321 8.92534 20.0377
698 1 1 0 1 -6.43561 7.17369 15.2167
699 1 1 0 1 4.32108 9.08992 22.1711
700 1 1 0 1 4.3917 12.3376 22.5159
701 1 1 0 1 -1.45127 11.6588 20.5967
702 1 1 0 1 -2.21289 7.90202 22.8397
703 1 1 0 1 -3.57425 15.8015 17.9568
704 1 1 0 1 7.82555 22.1951 18.1383
705 1 1 0 1 -1.32549 5.85782 4.0847
706 1 1 0 1 -1.71813 7.00997 -6.53531
707 1 1 0 1 -2.53737 28.1207 1.1107
708 1 1 0 1 2.77047 6.17266 2.37239
709 1 1 0 1 -10.2044 13.9525 6.81443
710 1 1 0 1 -5.12088 11.3243 0.132574
711 1 1 0 1 -7.15653 8.80942 4.04685
712 1 1 0 1 -0.594407 12.3047 14.2079
713 1 1 0 1 0.579476 10.5668 3.48008
714 1 1 0 1 -2.19259 16.428 -0.962523
715 1 1 0 1 -2.27071 13.0198 13.1799
716 1 1 0 1 -2.39565 16.5225 19.0597
717 1 1 0 1 -0.563306 12.1352 18.4252
718 1 1 0 1 0.177092 8.30793 12.9115
719 1 1 0 1 -7.30684 10.5602 15.3286
720 1 1 0 1 -2.71849 12.8001 22.6966
721 1 1 0 1 -8.64131 12.8676 11.4645
722 1 1 0 1 4.78142 19.4028 26.99
723 1 1 0 1 -4.44837 11.5803 17.7505
724 1 1 0 1 -0.58771 18.7823 22.4239
725 1 1 0 1 0.80509 13.1838 25.0142
726 1 1 0 1 -11.2006 17.643 17.029
727 1 1 0 1 6.66625 15.8522 2.16138
728 1 1 0 1 -1.31004 17.1157 -4.36975
729 1 1 0 1 -3.21304 2.99463 -6.51671
730 1 1 0 1 -2.47317 15.9561 8.66469
731 1 1 0 1 1.1462 18.2951 4.57443
732 1 1 0 1 6.51235 12.5712 5.84302
733 1 1 0 1 -3.36966 10.2048 5.01578
734 1 1 0 1 3.5613 5.18597 0.612209
735 1 1 0 1 -10.5317 14.598 2.43551
736 1 1 0 1 -9.23803 17.1208 -2.45591
737 1 1 0 1 -1.91392 10.1506 17.3017
738 1 1 0 1 8.43919 15.075 6.98886
739 1 1 0 1 -5.4116 6.48382 18.0916
740 1 1 0 1 -1.08505 7.79712 17.846
741 1 1 0 1 -3.39113 10.5873 18.5307
742 1 1 0 1 3.59955 8.64303 24.6386
743 1 1 0 1 -5.3635 8.00546 18.6758
744 1 1 0 1 3.60035 15.5192 26.3773
745 1 1 0 1 -0.42437 9.61765 18.1179
746 1 1 0 1 -2.26134 14.0775 20.4313
747 1 1 0 1 3.61649 9.87337 26.4636
748 1 1 0 1 3.84809 11.9785 32.3561
749 1 1 0 1 2.73988 9.95863 1.73611
750 1 1 0 1 -0.832263 9.79661 12.1697
751 1 1 0 1 -13.6918 14.2841 10.7725
752 1 1 0 1 -5.1854 15.3685 11.3195
753 1 1 0 1 -2.20422 11.1961 14.4108
754 1 1 0 1 5.23847 10.1297 5.88548
755 1 1 0 1 0.856217 19.4889 0.745558
756 1 1 0 1 -6.95723 24.0277 2.09823
757 1 1 0 1 -4.56418 11.5614 13.5789
758 1 1 0 1 -6.00653 20.1888 11.0927
759 1 1 0 1 -2.35296 13.1043 5.59043
760 1 1 0 1 0.995282 1.81181 15.7731
761 1 1 0 1 -6.01592 13.6555 17.5006
762 1 1 0 1 -8.65573 12.3984 8.30046
763 1 1 0 1 7.47359 18.4792 10.5478
764 1 1 0 1 -2.08018 21.8865 13.9182
765 1 1 0 1 2.10277 13.6176 18.7191
766 1 1 0 1 -6.32569 16.0898 13.9549
767 1 1 0 1 -12.9261 15.554 19.4159
768 1 1 0 1 -6.88573 15.687 22.8542
769 1 1 0 1 8.21465 11.0474 22.1637
770 1 1 0 1 0.421811 17.5617 23.692
771 1 1 0 1 -4.22529 11.0747 4.24329
772 1 1 0 1 -0.00354544 14.979 12.6953
773 1 1 0 1 -2.75199 9.85301 1.11587
774 1 1 0 1 -6.10813 5.92976 11.607
775 1 1 0 1 -6.74573 13.9835 -5.36875
776 1 1 0 1 -0.622831 7.78547 10.553
777 1 1 0 1 -1.38424 15.907 12.1376
778 1 1 0 1 -2.31935 14.8361 10.9503
779 1 1 0 1 0.177488 13.7253 22.7979
780 1 1 0 1 -4.5851 17.3546 8.08513
781 1 1 0 1 0.145297 21.8104 18.1886
782 1 1 0 1 3.14399 20.708 15.8835
783 1 1 0 1 -3.89789 13.5369 4.61073
784 1 1 0 1 -4.72513 18.4066 22.056
785 1 1 0 1 -6.10725 26.5721 15.3853
786 1 1 0 1 -5.48979 9.78966 18.5867
787 1 1 0 1 3.53685 9.87569 23.1688
788 1 1 0 1 -11.0995 19.7163 13.1122
789 1 1 0 1 -3.2372 17.6121 19.8227
790 1 1 0 1 -5.91895 13.6967 22.7509
791 1 1 0 1 -10.1387 15.0957 17.7461
792 1 1 0 1 -4.2332 9.31256 22.1958
793 1 1 0 1 -7.79571 21.9742 5.11936
794 1 1 0 1 -3.21793 15.3932 5.34052
795 1 1 0 1 6.17543 23.9513 -6.30979
796 1 1 0 1 0.650089 14.691 10.4143
797 1 1 0 1 -4.80295 23.4155 0.142029
798 1 1 0 1 2.91619 11.8066 -0.638054
799 1 1 0 1 -2.63419 13.2763 3.46392
800 1 1 0 1 4.44061 10.529 0.322242
801 1 1 0 1 9.62983 11.7996 9.10779
802 1 1 0 1 -3.80058 21.1821 10.34
803 1 1 0 1 2.07555 9.47399 19.216
804 1 1 0 1 -2.10113 15.6766 10.545
805 1 1 0 1 -9.85355 13.9181 19.6355
806 1 1 0 1 -2.89305 2.32961 2.39548
807 1 1 0 1 3.35556 20.1347 16.6458
808 1 1 0 1 -1.80771 16.6359 12.8811
809 1 1 0 1 -3.67245 16.4464 11.7935
810 1 1 0 1 -0.197307 16.8031 20.4081