ITEM: TIMESTEP
13000
ITEM: NUMBER OF ATOMS
6752
ITEM: BOX BOUNDS pp pp pp
0.0000000000000000e+00 2.2000000000000000e+01
0.0000000000000000e+00 2.2000000000000000e+01
0.0000000000000000e+00 2.2000000000000000e+01
ITEM: ATOMS id mol type q mass xu yu zu
1 1 1 0 1 -2.52495 -5.04823 2.9831
2 1 1 0 1 -3.17935 2.58129 2.31173
3 1 1 0 1 -3.22094 0.739418 6.90269
4 1 1 0 1 -8.74224 -3.55495 7.29343
5 1 1 0 1 0.0909414 4.55017 3.24651
6 1 1 0 1 -6.80514 0.520813 10.6188
7 1 1 0 1 -3.38784 5.50959 4.79201
8 1 1 0 1 0.939829 -5.20314 11.9976
9 1 1 0 1 -0.912747 0.748669 11.104
10 1 1 0 1 -8.17753 2.08383 11.1996
11 1 1 0 1 -1.85515 3.34481 7.95575
12 1 1 0 1 -6.71636 -3.72221 13.6458
13 1 1 0 1 -0.53855 2.44925 12.6842
14 1 1 0 1 -0.505338 9.65939 14.699
15 1 1 0 1 -8.24035 4.91888 13.236
16 1 1 0 1 -4.855 -2.23063 15.1713
17 1 1 0 1 -0.446193 0.694113 14.6485
18 1 1 0 1 -3.09666 -0.986532 22.0752
19 1 1 0 1 -0.238416 5.43974 18.2901
20 1 1 0 1 1.39066 -3.22226 17.6187
21 1 1 0 1 -2.65691 5.71302 16.2015
22 1 1 0 1 -6.33978 11.9987 18.6813
23 1 1 0 1 -7.24223 -0.889103 5.21374
24 1 1 0 1 -5.04625 1.16614 -0.163066
25 1 1 0 1 -3.18229 -2.59028 -3.24641
26 1 1 0 1 0.796648 0.45725 6.39891
27 1 1 0 1 -7.99598 0.858987 11.1207
28 1 1 0 1 -5.26446 4.76975 0.975687
29 1 1 0 1 -3.14888 -1.95783 10.6308
30 1 1 0 1 -5.33272 0.769684 10.8892
31 1 1 0 1 -2.8838 4.53014 12.1978
32 1 1 0 1 -6.74444 -3.53493 6.01596
33 1 1 0 1 -5.59229 4.41371 11.8597
34 1 1 0 1 -2.19024 2.60134 13.463
35 1 1 0 1 -3.84582 1.20344 12.4546
36 1 1 0 1 1.86245 1.12439 6.53966
37 1 1 0 1 -6.61282 0.221543 15.4738
38 1 1 0 1 0.884245 -0.143865 20.9434
39 1 1 0 1 -1.12151 1.60015 10.5464
40 1 1 0 1 -3.01247 6.11704 22.2683
41 1 1 0 1 -7.21471 -1.49638 14.5131
42 1 1 0 1 -8.80399 0.422256 24.4726
43 1 1 0 1 -2.66128 10.7611 23.3277
44 1 1 0 1 -2.61933 8.97933 16.1255
45 1 1 0 1 -10.0151 7.63219 7.76865
46 1 1 0 1 -4.57783 6.39879 9.93391
47 1 1 0 1 -0.503843 2.21876 -5.14447
48 1 1 0 1 -10.9297 3.9569 2.01008
49 1 1 0 1 -0.254313 4.46683 0.205036
50 1 1 0 1 -3.00149 4.97103 -0.417026
51 1 1 0 1 -3.76676 4.56618 5.99014
52 1 1 0 1 1.76076 3.79587 15.5924
53 1 1 0 1 -3.14375 1.46903 5.07075
54 1 1 0 1 -6.4866 -1.34947 11.3885
55 1 1 0 1 -6.16415 3.51547 11.4316
56 1 1 0 1 0.536935 0.185802 8.06058
57 1 1 0 1 -1.15686 8.85606 13.783
58 1 1 0 1 -4.59671 10.7388 13.415
59 1 1 0 1 -6.50107 1.19657 11.6382
60 1 1 0 1 0.251303 4.32353 20.0207
61 1 1 0 1 -8.03603 5.62364 11.0383
62 1 1 0 1 -1.23547 0.104482 20.7371
63 1 1 0 1 -3.14557 9.47621 6.65655
64 1 1 0 1 -3.03157 -2.51221 13.5457
65 1 1 0 1 -3.9163 5.02351 18.2058
66 1 1 0 1 -9.55772 3.6981 22.4589
67 1 1 0 1 -3.05723 1.31019 -4.80378
68 1 1 0 1 -3.6375 3.56503 -6.8737
69 1 1 0 1 -4.53967 6.08787 -0.985659
70 1 1 0 1 -3.65167 6.90476 4.27808
71 1 1 0 1 2.61535 2.48065 3.13602
72 1 1 0 1 -11.94 4.38791 4.82983
73 1 1 0 1 3.72236 -2.1656 9.25635
74 1 1 0 1 -5.27561 3.44928 9.27712
75 1 1 0 1 -1.5521 -0.306783 10.379
76 1 1 0 1 -9.08692 0.401961 9.53505
77 1 1 0 1 -4.32025 -3.41198 7.7574
78 1 1 0 1 -2.40355 5.47452 10.2425
79 1 1 0 1 -4.806 1.87272 12.9704
80 1 1 0 1 3.12015 3.09382 8.78922
81 1 1 0 1 -0.437712 6.9786 14.592
82 1 1 0 1 -3.04292 -1.02654 12.1503
83 1 1 0 1 -2.81442 -1.06723 18.1517
84 1 1 0 1 0.65374 4.9957 17.8369
85 1 1 0 1 -4.8486 2.3845 24.937
86 1 1 0 1 -3.48532 3.9512 18.6623
87 1 1 0 1 -5.05924 -2.11602 21.9193
88 1 1 0 1 -3.74654 9.33676 21.1876
89 1 1 0 1 -2.44812 9.65069 1.34145
90 1 1 0 1 -0.783713 7.56449 5.82029
91 1 1 0 1 -4.35022 0.216691 6.43813
92 1 1 0 1 -6.61894 7.68179 8.66525
93 1 1 0 1 -3.15259 8.60713 7.75798
94 1 1 0 1 -6.03192 -0.864777 5.82097
95 1 1 0 1 -4.98691 7.43045 9.60705
96 1 1 0 1 -2.90726 4.54719 9.92277
97 1 1 0 1 -1.68861 8.63243 10.3842
98 1 1 0 1 -1.14842 5.15947 6.27301
99 1 1 0 1 -4.18236 4.30949 11.8209
100 1 1 0 1 -0.805963 2.67382 5.47381
101 1 1 0 1 -5.82969 7.11126 12.0805
102 1 1 0 1 -2.08033 5.64924 14.0305
103 1 1 0 1 -4.44322 12.3218 10.5243
104 1 1 0 1 -4.0551 12.4913 11.5369
105 1 1 0 1 -6.72163 8.48115 7.20566
106 1 1 0 1 -2.71142 1.4846 21.1579
107 1 1 0 1 -6.29376 10.4938 16.2813
108 1 1 0 1 -3.15453 7.77295 16.3331
109 1 1 0 1 -8.00477 7.57751 21.5937
110 1 1 0 1 -6.38586 8.66937 22.0232
111 1 1 0 1 -5.43156 2.55632 1.79787
112 1 1 0 1 -1.48822 2.98556 -2.8337
113 1 1 0 1 0.856636 13.9895 8.40745
114 1 1 0 1 -4.39753 6.73299 3.51444
115 1 1 0 1 -3.45832 12.9771 4.16756
116 1 1 0 1 -0.988754 12.3875 2.78075
117 1 1 0 1 -3.317 8.36915 6.65568
118 1 1 0 1 -2.0889 4.26818 8.17087
119 1 1 0 1 -4.10309 -0.600423 9.76184
120 1 1 0 1 -3.13006 2.5352 9.32908
121 1 1 0 1 1.07098 3.32753 5.28218
122 1 1 0 1 -4.60056 7.2981 10.723
123 1 1 0 1 -3.06747 6.16539 14.3347
124 1 1 0 1 -6.87667 8.56823 15.8252
125 1 1 0 1 -5.56599 11.4295 7.54016
126 1 1 0 1 -5.86979 7.36455 15.5827
127 1 1 0 1 -2.4199 10.6665 17.3793
128 1 1 0 1 -8.361 12.4263 16.1382
129 1 1 0 1 -2.2853 6.72268 20.1112
130 1 1 0 1 -6.42808 4.68059 19.1144
131 1 1 0 1 -3.29472 2.95835 11.4777
132 1 1 0 1 -7.28683 5.74065 22.9337
133 1 1 0 1 -2.43763 8.35378 1.37833
134 1 1 0 1 -8.64005 6.81034 6.58988
135 1 1 0 1 -6.31728 0.59334 1.6635
136 1 1 0 1 -4.40686 13.2811 3.73184
137 1 1 0 1 -8.1292 9.07181 5.08994
138 1 1 0 1 -6.8471 9.49698 11.356
139 1 1 0 1 -0.626647 7.05014 4.7215
140 1 1 0 1 -6.48327 10.0471 4.55653
141 1 1 0 1 5.17541 7.72437 0.761274
142 1 1 0 1 -1.38867 1.72984 12.5808
143 1 1 0 1 -3.15156 2.74866 13.0985
144 1 1 0 1 0.818468 2.7571 9.38872
145 1 1 0 1 -4.05594 7.99076 17.3627
146 1 1 0 1 -3.91479 13.1235 20.0999
147 1 1 0 1 -2.94235 13.4853 13.7755
148 1 1 0 1 -4.80389 15.1817 13.2313
149 1 1 0 1 -4.59073 8.10695 22.7392
150 1 1 0 1 -7.6144 7.21158 13.2888
151 1 1 0 1 -5.22778 4.64529 21.4972
152 1 1 0 1 -3.71402 6.94586 18.6331
153 1 1 0 1 -4.32468 5.98802 19.97
154 1 1 0 1 -2.16695 6.28275 28.4956
155 1 1 0 1 -2.00504 4.98655 -4.00081
156 1 1 0 1 -2.03302 1.5062 1.93754
157 1 1 0 1 -2.03186 7.22378 1.87839
158 1 1 0 1 -1.6035 8.35786 2.2986
159 1 1 0 1 -7.11921 8.06694 -0.717657
160 1 1 0 1 -7.10938 1.88452 7.51103
161 1 1 0 1 -0.768841 8.3717 3.0709
162 1 1 0 1 -2.72227 5.12479 6.25074
163 1 1 0 1 1.1596 4.421 8.19649
164 1 1 0 1 -3.56831 4.03171 13.1582
165 1 1 0 1 -2.89828 4.98487 7.65649
166 1 1 0 1 -0.732374 7.6809 16.2647
167 1 1 0 1 0.00207849 11.1364 13.8596
168 1 1 0 1 -1.76975 10.006 19.1274
169 1 1 0 1 -5.74694 11.019 17.9956
170 1 1 0 1 -0.678356 6.64964 20.9469
171 1 1 0 1 -1.41822 11.2799 18.5507
172 1 1 0 1 -1.41044 9.67751 21.5888
173 1 1 0 1 -1.19326 6.07315 14.3561
174 1 1 0 1 -0.296583 3.21638 25.5107
175 1 1 0 1 -6.83024 10.5757 20.6432
176 1 1 0 1 1.7869 6.61747 25.4876
177 1 1 0 1 -7.80954 3.0124 0.196743
178 1 1 0 1 -1.60467 19.1983 6.50433
179 1 1 0 1 -4.93312 14.1554 -2.52931
180 1 1 0 1 -0.533236 13.695 4.82985
181 1 1 0 1 -3.37191 11.6095 3.91189
182 1 1 0 1 -4.43213 14.3813 6.82162
183 1 1 0 1 -3.86823 9.20173 3.90967
184 1 1 0 1 -4.27129 8.70747 8.07214
185 1 1 0 1 -8.17301 1.7078 8.95928
186 1 1 0 1 -11.5479 11.1469 7.13513
187 1 1 0 1 -7.67851 13.8857 10.4629
188 1 1 0 1 -3.28102 2.30061 10.4062
189 1 1 0 1 0.272917 13.5741 12.0032
190 1 1 0 1 -5.60476 6.36491 17.0626
191 1 1 0 1 -1.96607 10.4062 20.0609
192 1 1 0 1 -2.80706 10.5493 19.2523
193 1 1 0 1 -0.767273 5.04752 16.2996
194 1 1 0 1 1.09925 12.1894 23.7907
195 1 1 0 1 -3.68385 9.10775 15.9901
196 1 1 0 1 -0.709984 3.64874 19.0445
197 1 1 0 1 -4.59 9.25626 18.8588
198 1 1 0 1 2.54155 9.35676 25.7703
199 1 1 0 1 2.35833 10.9416 0.693899
200 1 1 0 1 1.9237 8.18544 4.48065
201 1 1 0 1 -3.04621 9.19532 0.192478
202 1 1 0 1 -2.56969 7.50457 7.05919
203 1 1 0 1 -4.9052 8.10931 3.17582
204 1 1 0 1 -4.03368 12.0907 8.92313
205 1 1 0 1 -1.4996 5.81549 4.54992
206 1 1 0 1 -3.06094 9.90457 5.48865
207 1 1 0 1 -7.86927 5.04025 2.22261
208 1 1 0 1 -3.71639 5.02635 12.6666
209 1 1 0 1 -2.9309 2.73221 8.20289
210 1 1 0 1 -5.08469 7.90659 11.6185
211 1 1 0 1 2.12649 7.53347 10.2819
212 1 1 0 1 -4.45555 8.6716 10.0449
213 1 1 0 1 2.13606 12.0944 19.7525
214 1 1 0 1 -11.2123 14.7701 19.1662
215 1 1 0 1 -5.34061 8.95913 20.0571
216 1 1 0 1 -4.66569 7.0852 19.5088
217 1 1 0 1 -4.85254 14.5046 24.8175
218 1 1 0 1 -1.66893 10.2479 22.7958
219 1 1 0 1 2.86692 10.4268 25.4814
220 1 1 0 1 -0.677714 13.1994 22.5022
221 1 1 0 1 5.52679 10.0684 -3.29378
222 1 1 0 1 -4.9238 10.1151 4.26709
223 1 1 0 1 -10.8729 9.10444 4.34649
224 1 1 0 1 -2.43634 10.228 2.70516
225 1 1 0 1 -7.11474 13.4007 4.37459
226 1 1 0 1 -9.5393 13.3757 8.02215
227 1 1 0 1 -10.7481 14.0115 8.41311
228 1 1 0 1 -6.07685 16.4702 7.95315
229 1 1 0 1 -1.25609 9.0193 8.75413
230 1 1 0 1 -5.08759 13.4145 4.54849
231 1 1 0 1 -5.14413 10.341 14.2108
232 1 1 0 1 -2.69154 1.79912 12.8761
233 1 1 0 1 -4.09537 11.8943 13.8874
234 1 1 0 1 -9.63139 10.3584 12.0625
235 1 1 0 1 -1.28533 9.15286 18.2234
236 1 1 0 1 -10.2258 15.4288 16.1244
237 1 1 0 1 -5.67111 15.0975 19.6598
238 1 1 0 1 -6.83944 13.0331 14.4513
239 1 1 0 1 -5.86045 10.1323 17.2863
240 1 1 0 1 -4.54878 11.6709 16.3124
241 1 1 0 1 -3.82301 8.12045 20.5141
242 1 1 0 1 -0.943169 6.26274 23.2265
243 1 1 0 1 -1.51748 12.2985 3.74162
244 1 1 0 1 -4.73682 14.9553 -1.21642
245 1 1 0 1 -5.75473 14.3914 3.27035
246 1 1 0 1 -0.865958 13.1065 3.90898
247 1 1 0 1 -8.05364 11.6663 3.26567
248 1 1 0 1 -1.90605 3.88337 6.16169
249 1 1 0 1 -8.45577 12.2677 7.00001
250 1 1 0 1 -3.14454 8.52158 11.3146
251 1 1 0 1 -5.37271 9.35103 8.14851
252 1 1 0 1 0.181057 6.72409 8.8134
253 1 1 0 1 -0.749254 2.44688 13.8026
254 1 1 0 1 0.993568 13.7494 10.8928
255 1 1 0 1 -6.91192 8.37146 10.2288
256 1 1 0 1 -9.85707 17.3364 12.1517
257 1 1 0 1 -0.772227 17.1228 18.3796
258 1 1 0 1 -1.57234 13.6187 14.1857
259 1 1 0 1 -2.86198 14.5638 19.3829
260 1 1 0 1 -0.388786 13.1447 17.3957
261 1 1 0 1 -2.85058 8.86815 17.709
262 1 1 0 1 -2.54782 13.7901 22.2189
263 1 1 0 1 0.067069 11.7334 16.703
264 1 1 0 1 1.69986 19.445 23.5088
265 1 1 0 1 -0.476216 13.5065 -0.58114
266 1 1 0 1 4.37495 12.9957 3.12492
267 1 1 0 1 -3.73054 15.5798 5.41738
268 1 1 0 1 -3.56371 10.0179 0.941806
269 1 1 0 1 2.44247 10.9322 10.2371
270 1 1 0 1 -2.70647 12.0541 -1.28414
271 1 1 0 1 -2.39247 6.14716 9.31271
272 1 1 0 1 -7.73578 13.7457 13.8443
273 1 1 0 1 -6.63608 12.7675 5.94889
274 1 1 0 1 -6.86326 7.57038 11.5961
275 1 1 0 1 -10.9547 5.94078 12.1393
276 1 1 0 1 -1.8839 11.7083 13.9364
277 1 1 0 1 -1.68794 11.3904 9.45334
278 1 1 0 1 0.754347 14.4896 11.9141
279 1 1 0 1 -5.88389 14.8261 13.9825
280 1 1 0 1 -9.4192 13.4929 5.05905
281 1 1 0 1 -0.603085 14.1903 23.579
282 1 1 0 1 -6.41221 11.2111 8.30356
283 1 1 0 1 0.666645 14.212 13.1902
284 1 1 0 1 -2.088 13.4992 17.1757
285 1 1 0 1 -4.01481 10.685 16.3375
286 1 1 0 1 -2.96141 12.9815 18.6103
287 1 1 0 1 -3.18319 20.8719 3.75889
288 1 1 0 1 -1.63273 15.6419 3.67764
289 1 1 0 1 -6.92203 4.79923 6.87732
290 1 1 0 1 -2.87231 8.85286 2.63936
291 1 1 0 1 -10.4046 8.74516 14.2724
292 1 1 0 1 -7.65862 15.3216 7.50785
293 1 1 0 1 -0.323015 9.31599 6.75345
294 1 1 0 1 -2.64468 12.8984 10.4876
295 1 1 0 1 -1.3841 8.56554 12.6706
296 1 1 0 1 -3.75341 12.9349 9.92806
297 1 1 0 1 -3.4166 12.2696 7.74643
298 1 1 0 1 -6.65169 6.67243 13.8943
299 1 1 0 1 0.651365 17.4587 15.2868
300 1 1 0 1 1.08836 18.8987 19.7519
301 1 1 0 1 -6.80378 15.5526 14.1041
302 1 1 0 1 -4.77797 16.7645 16.6489
303 1 1 0 1 -6.75759 16.2459 10.4649
304 1 1 0 1 0.385636 11.2292 9.15013
305 1 1 0 1 1.54498 11.1536 13.0937
306 1 1 0 1 -0.613895 16.6182 22.4449
307 1 1 0 1 -4.28941 13.8586 13.3412
308 1 1 0 1 -1.18187 20.6956 30.9203
309 1 1 0 1 0.0878282 13.5056 3.23168
310 1 1 0 1 -1.92271 12.6275 2.22918
311 1 1 0 1 -4.41038 12.4871 -2.75156
312 1 1 0 1 -10.3912 7.73305 2.73984
313 1 1 0 1 -9.3698 15.0825 1.5001
314 1 1 0 1 0.585638 12.4453 4.4422
315 1 1 0 1 -0.274286 7.43634 9.65998
316 1 1 0 1 -6.54148 13.8722 1.20143
317 1 1 0 1 -6.37547 13.457 7.47382
318 1 1 0 1 -2.95572 14.5357 8.62136
319 1 1 0 1 -3.67225 13.8412 7.41063
320 1 1 0 1 1.87 21.537 10.8385
321 1 1 0 1 -2.61849 14.7338 14.3332
322 1 1 0 1 -0.0743355 10.7176 14.8852
323 1 1 0 1 -4.33068 13.3939 10.7788
324 1 1 0 1 -5.03332 10.3349 7.68249
325 1 1 0 1 -0.590787 15.4267 9.39515
326 1 1 0 1 -6.96639 13.8679 17.6716
327 1 1 0 1 -2.65835 14.0004 18.2119
328 1 1 0 1 -4.14626 17.1376 17.9615
329 1 1 0 1 -0.261293 13.3171 19.1307
330 1 1 0 1 -0.4517 14.5421 20.0745
331 1 1 0 1 -2.63675 15.7615 4.49693
332 1 1 0 1 -1.15962 19.7006 4.27129
333 1 1 0 1 -3.38807 14.5928 5.23699
334 1 1 0 1 -6.14551 18.5337 2.14325
335 1 1 0 1 -2.6649 14.8923 6.82814
336 1 1 0 1 -7.79033 10.1076 3.40003
337 1 1 0 1 -3.44892 9.57222 8.88885
338 1 1 0 1 -1.73383 14.6484 7.50801
339 1 1 0 1 -10.8723 11.955 3.87732
340 1 1 0 1 2.46086 14.5548 8.6787
341 1 1 0 1 -5.92738 8.2702 7.83763
342 1 1 0 1 -6.75048 14.117 13.9794
343 1 1 0 1 -5.70724 12.4708 2.57904
344 1 1 0 1 -6.28061 12.9064 12.1278
345 1 1 0 1 -7.73067 16.309 14.2722
346 1 1 0 1 8.24214 17.2599 15.5053
347 1 1 0 1 -0.2169 16.9767 19.3662
348 1 1 0 1 -2.24671 11.77 17.0453
349 1 1 0 1 -0.0140279 16.7723 14.7394
350 1 1 0 1 -1.01723 13.9851 19.441
351 1 1 0 1 -7.77873 19.018 15.4929
352 1 1 0 1 -1.28749 18.0669 26.5125
353 1 1 0 1 -5.58229 17.7128 1.14469
354 1 1 0 1 5.79995 18.2905 2.97398
355 1 1 0 1 -5.861 12.5788 7.76959
356 1 1 0 1 -4.65802 10.6542 5.12432
357 1 1 0 1 -0.827419 15.3664 2.48156
358 1 1 0 1 -2.41658 14.7298 4.72458
359 1 1 0 1 -8.15557 16.5596 3.51135
360 1 1 0 1 -3.8008 15.214 6.49665
361 1 1 0 1 -6.20895 17.8938 11.9536
362 1 1 0 1 -1.17835 12.2244 10.0707
363 1 1 0 1 0.757332 13.1045 7.55097
364 1 1 0 1 3.64085 15.1374 11.9714
365 1 1 0 1 -1.29728 7.51522 2.81564
366 1 1 0 1 -6.52578 14.8812 15.0861
367 1 1 0 1 -0.990316 10.3449 9.71276
368 1 1 0 1 -4.98511 18.843 18.3892
369 1 1 0 1 -5.83181 9.57951 11.85
370 1 1 0 1 -2.41475 8.99645 8.34636
371 1 1 0 1 -1.9157 18.8568 24.2255
372 1 1 0 1 -3.52904 12.0174 18.8806
373 1 1 0 1 -8.85091 13.2079 21.4682
374 1 1 0 1 -2.75166 14.5738 24.5959
375 1 1 0 1 -6.34253 8.61885 5.24319
376 1 1 0 1 -4.92532 11.6855 -0.842827
377 1 1 0 1 -8.80103 17.1904 1.9104
378 1 1 0 1 -7.42334 15.8282 2.99108
379 1 1 0 1 -5.08641 16.6049 -2.47247
380 1 1 0 1 -6.16066 14.2855 2.37037
381 1 1 0 1 -5.14443 16.0902 5.32866
382 1 1 0 1 -9.90563 18.756 13.1439
383 1 1 0 1 -4.44875 18.2313 12.4639
384 1 1 0 1 1.35172 10.7454 8.62197
385 1 1 0 1 -3.46224 18.983 12.726
386 1 1 0 1 -5.76363 15.2269 8.54591
387 1 1 0 1 -7.64244 12.5146 14.0352
388 1 1 0 1 -3.63502 11.6822 19.9272
389 1 1 0 1 -5.78891 13.614 16.5073
390 1 1 0 1 -1.82938 15.3498 20.7594
391 1 1 0 1 -5.23708 17.6074 19.9159
392 1 1 0 1 -7.55891 15.1676 10.3502
393 1 1 0 1 -2.89392 8.50258 14.4118
394 1 1 0 1 -5.10631 18.5236 20.2536
395 1 1 0 1 -7.93588 12.9297 13.0345
396 1 1 0 1 -3.24817 15.4613 22.9885
397 1 1 0 1 -0.335391 19.281 1.83853
398 1 1 0 1 -4.13587 26.3174 1.48417
399 1 1 0 1 -6.5971 13.6053 -2.96871
400 1 1 0 1 -1.00088 9.88548 5.52137
401 1 1 0 1 1.63455 12.4491 7.62409
402 1 1 0 1 -1.9449 19.1875 8.10747
403 1 1 0 1 0.910288 15.5071 11.4697
404 1 1 0 1 -5.57961 25.7066 3.87464
405 1 1 0 1 -11.4788 13.247 6.57072
406 1 1 0 1 -6.26894 14.4487 7.99377
407 1 1 0 1 -4.4877 15.4945 7.213
408 1 1 0 1 -10.8607 17.9552 9.26291
409 1 1 0 1 -5.85961 13.421 14.5428
410 1 1 0 1 -6.44153 8.30825 12.606
411 1 1 0 1 -0.0326874 17.5667 11.5499
412 1 1 0 1 -12.3063 15.36 10.2269
413 1 1 0 1 -8.42735 17.1705 19.6464
414 1 1 0 1 -5.88881 10.8475 20.161
415 1 1 0 1 -2.17406 15.7432 21.667
416 1 1 0 1 -3.26953 13.5557 22.998
417 1 1 0 1 2.15528 21.1154 21.7036
418 1 1 0 1 1.5972 14.6562 22.8428
419 1 1 0 1 -6.13923 17.0256 7.06352
420 1 1 0 1 -1.56627 26.4038 12.2975
421 1 1 0 1 -5.39788 17.5616 7.6818
422 1 1 0 1 -2.5715 12.5752 4.59739
423 1 1 0 1 -3.23014 21.2614 8.03029
424 1 1 0 1 -4.616 19.4626 9.26684
425 1 1 0 1 -4.38549 17.1315 5.5125
426 1 1 0 1 -2.1338 22.3232 2.46503
427 1 1 0 1 0.965932 20.154 10.3799
428 1 1 0 1 2.25329 24.1322 4.05658
429 1 1 0 1 -3.76775 25.1365 7.47378
430 1 1 0 1 3.57414 18.2854 11.5185
431 1 1 0 1 -9.49798 17.5509 13.269
432 1 1 0 1 -1.46024 23.8859 14.3483
433 1 1 0 1 -4.75306 17.8042 17.1509
434 1 1 0 1 -4.56767 10.668 12.3507
435 1 1 0 1 -5.35463 11.1258 19.2279
436 1 1 0 1 -7.59746 19.3623 16.958
437 1 1 0 1 -2.04963 14.6285 15.2801
438 1 1 0 1 -3.54791 17.594 17.2658
439 1 1 0 1 -2.25582 20.195 21.2957
440 1 1 0 1 -6.59303 17.1165 19.8142
441 1 1 0 1 -4.10018 16.9764 -2.72158
442 1 1 0 1 -3.30395 20.3446 7.02115
443 1 1 0 1 -2.40441 17.8571 -0.411471
444 1 1 0 1 -4.22335 26.889 -0.653578
445 1 1 0 1 -6.29125 16.824 4.95584
446 1 1 0 1 -1.68482 6.0887 8.58555
447 1 1 0 1 -4.13951 11.907 5.43643
448 1 1 0 1 -6.88587 16.7257 11.8529
449 1 1 0 1 -7.52043 17.6988 11.8229
450 1 1 0 1 0.304387 16.1503 21.4391
451 1 1 0 1 -6.429 16.579 9.23215
452 1 1 0 1 -7.35381 16.5762 15.8458
453 1 1 0 1 -6.38955 18.1721 19.3344
454 1 1 0 1 0.860979 23.2481 15.5753
455 1 1 0 1 -5.05293 8.21772 8.79461
456 1 1 0 1 -5.32164 14.1097 11.3061
457 1 1 0 1 -9.73862 22.1299 12.2647
458 1 1 0 1 -9.09477 18.4539 17.254
459 1 1 0 1 -6.66362 17.8873 18.0622
460 1 1 0 1 -1.98712 11.78 19.9356
461 1 1 0 1 -0.278416 21.3888 11.9341
462 1 1 0 1 2.82111 21.3728 19.4871
463 1 1 0 1 -0.0987027 21.6728 -6.8919
464 1 1 0 1 0.723507 21.0341 4.65859
465 1 1 0 1 2.52683 23.7794 2.42158
466 1 1 0 1 1.05528 23.7437 4.76517
467 1 1 0 1 -5.51199 17.8265 12.6956
468 1 1 0 1 -2.80094 21.1394 5.58017
469 1 1 0 1 -3.53637 14.8965 7.64513
470 1 1 0 1 -0.18829 21.4683 4.01327
471 1 1 0 1 -3.22975 14.1946 6.32626
472 1 1 0 1 3.58854 27.0892 10.0148
473 1 1 0 1 -5.08598 18.4288 13.7442
474 1 1 0 1 -1.22465 17.1589 10.3446
475 1 1 0 1 -2.51861 16.6132 12.2419
476 1 1 0 1 -0.462261 21.9759 21.6311
477 1 1 0 1 -1.81545 20.8983 17.2892
478 1 1 0 1 -4.00968 20.4648 15.4469
479 1 1 0 1 -1.87611 25.3342 15.2394
480 1 1 0 1 3.8592 20.7867 15.2472
481 1 1 0 1 -2.4906 19.3134 19.7598
482 1 1 0 1 -6.4674 27.209 15.3066
483 1 1 0 1 1.6272 20.6727 28.2646
484 1 1 0 1 0.834646 21.6766 24.8928
485 1 1 0 1 -3.51461 -1.92246 3.15152
486 1 1 0 1 -0.857715 4.06447 -5.00439
487 1 1 0 1 -3.50344 5.16413 1.64782
488 1 1 0 1 -2.20733 -0.987451 1.85394
489 1 1 0 1 -2.96173 3.92972 5.44024
490 1 1 0 1 -5.19063 -1.2198 2.81797
491 1 1 0 1 -3.87931 1.79428 9.37148
492 1 1 0 1 -2.16539 -6.82174 8.56498
493 1 1 0 1 -5.16745 -0.59474 9.82806
494 1 1 0 1 -4.60509 -0.603822 4.37349
495 1 1 0 1 -3.73638 2.33497 15.6546
496 1 1 0 1 0.380477 4.90002 12.3499
497 1 1 0 1 -0.977976 -2.78845 10.9998
498 1 1 0 1 -0.597423 -2.26338 18.0385
499 1 1 0 1 -2.6167 -1.74417 11.6011
500 1 1 0 1 -2.92338 -4.28384 19.4643
501 1 1 0 1 0.413167 -3.16317 13.4219
502 1 1 0 1 1.15851 -6.41568 20.36
503 1 1 0 1 -3.09784 4.42661 15.3375
504 1 1 0 1 -2.11015 -0.712958 13.4905
505 1 1 0 1 -6.00032 -1.75457 13.3815
506 1 1 0 1 -2.63445 3.69409 19.4605
507 1 1 0 1 -2.70661 3.94835 -0.779414
508 1 1 0 1 -2.69234 1.7208 2.91183
509 1 1 0 1 -5.78317 4.7935 3.78762
510 1 1 0 1 -4.61006 -0.361931 2.45086
511 1 1 0 1 1.99314 4.76757 0.264885
512 1 1 0 1 -0.711521 4.9624 4.74744
513 1 1 0 1 -2.1787 -2.38697 5.74811
514 1 1 0 1 -3.05501 0.78838 2.99784
515 1 1 0 1 4.03817 5.52503 3.96366
516 1 1 0 1 -5.57303 0.431867 9.97759
517 1 1 0 1 -5.02508 -1.20995 8.0388
518 1 1 0 1 -1.21635 1.76413 6.21836
519 1 1 0 1 0.582269 0.593511 13.3545
520 1 1 0 1 0.633333 -1.80795 11.6906
521 1 1 0 1 -0.368229 3.16737 9.39506
522 1 1 0 1 -5.90415 3.60108 12.6653
523 1 1 0 1 1.991 -1.99839 13.9026
524 1 1 0 1 -0.102563 1.52674 15.2069
525 1 1 0 1 -6.93737 4.07929 24.1102
526 1 1 0 1 2.80275 -4.38119 24.6659
527 1 1 0 1 -0.468347 4.88748 20.9965
528 1 1 0 1 2.90194 5.19568 23.6711
529 1 1 0 1 6.72536 9.24814 5.15685
530 1 1 0 1 1.33688 -0.921501 -5.2046
531 1 1 0 1 -3.24132 9.4224 -2.63471
532 1 1 0 1 0.678148 -2.50462 1.37284
533 1 1 0 1 -4.44808 3.29284 0.0510288
534 1 1 0 1 -1.05991 1.0727 3.91604
535 1 1 0 1 0.916808 4.22441 2.45961
536 1 1 0 1 -2.52593 6.12901 4.5844
537 1 1 0 1 -1.74352 2.00825 7.98945
538 1 1 0 1 -5.88893 -2.05384 11.1086
539 1 1 0 1 -1.56802 4.4592 14.3504
540 1 1 0 1 -0.138918 5.7636 8.85004
541 1 1 0 1 -5.64705 8.6251 13.2778
542 1 1 0 1 -3.41131 5.18949 14.4642
543 1 1 0 1 -9.41518 6.89719 14.1472
544 1 1 0 1 2.56606 4.54572 14.6653
545 1 1 0 1 -2.02236 2.43012 12.1159
546 1 1 0 1 0.67302 1.62434 13.5465
547 1 1 0 1 -1.36982 1.0105 19.9722
548 1 1 0 1 -2.93161 8.66055 25.9879
549 1 1 0 1 -2.24624 7.21135 21.9381
550 1 1 0 1 -4.03885 6.01777 24.6218
551 1 1 0 1 -1.71764 8.48082 3.91205
552 1 1 0 1 -4.46662 7.19654 -0.539392
553 1 1 0 1 -1.31617 9.88739 4.4442
554 1 1 0 1 -0.189907 3.34332 -2.07769
555 1 1 0 1 -1.13823 7.37775 1.40794
556 1 1 0 1 -1.84466 2.80845 5.86881
557 1 1 0 1 -0.452432 4.40372 6.88078
558 1 1 0 1 3.31864 5.0032 5.61614
559 1 1 0 1 -2.39434 0.552172 9.52152
560 1 1 0 1 -4.27651 0.641679 4.22261
561 1 1 0 1 1.76037 -0.812305 12.228
562 1 1 0 1 1.95281 3.42259 13.529
563 1 1 0 1 -3.92523 1.8376 13.3745
564 1 1 0 1 -2.87127 -2.49456 9.56213
565 1 1 0 1 5.11208 7.06309 14.2246
566 1 1 0 1 2.45603 5.50267 14.0803
567 1 1 0 1 -1.42456 7.31851 20.3039
568 1 1 0 1 2.15861 7.40016 16.2211
569 1 1 0 1 1.48492 4.94514 19.3954
570 1 1 0 1 -5.92662 4.0704 22.4769
571 1 1 0 1 4.23444 5.54438 18.8742
572 1 1 0 1 -1.18225 2.65441 21.9712
573 1 1 0 1 -2.64126 7.61768 -1.11169
574 1 1 0 1 -0.665026 6.3766 6.73877
575 1 1 0 1 -3.44939 0.5301 -1.03665
576 1 1 0 1 -5.08126 3.53133 1.14278
577 1 1 0 1 -4.3539 4.83385 4.90792
578 1 1 0 1 -2.30061 10.2811 11.2356
579 1 1 0 1 -4.47904 4.26335 7.2216
580 1 1 0 1 -2.35352 1.69155 10.3772
581 1 1 0 1 -2.12753 9.001 11.4515
582 1 1 0 1 0.0483592 3.39943 8.23973
583 1 1 0 1 -3.99556 5.83424 9.08368
584 1 1 0 1 -2.6401 9.82141 16.7143
585 1 1 0 1 -8.4576 3.54878 15.7368
586 1 1 0 1 -0.171624 15.5061 17.979
587 1 1 0 1 -6.70058 13.7966 12.5803
588 1 1 0 1 -6.15983 3.41884 17.3661
589 1 1 0 1 -5.60016 5.47025 21.9271
590 1 1 0 1 -1.84694 3.71246 17.3812
591 1 1 0 1 -1.66601 3.34019 14.1051
592 1 1 0 1 -3.97536 3.09743 22.9522
593 1 1 0 1 -1.27214 6.02389 16.5539
594 1 1 0 1 -4.96203 -0.620706 19.8798
595 1 1 0 1 -0.727346 4.50262 -3.96243
596 1 1 0 1 -3.85994 5.66387 6.02661
597 1 1 0 1 -5.61208 3.09797 8.24023
598 1 1 0 1 3.71135 5.71743 0.829155
599 1 1 0 1 3.75929 6.52847 1.6001
600 1 1 0 1 1.44261 9.15673 0.959496
601 1 1 0 1 -4.55339 6.78983 7.25751
602 1 1 0 1 4.03213 -0.124799 1.69365
603 1 1 0 1 3.19073 2.93541 10.6644
604 1 1 0 1 4.367 4.67105 12.0057
605 1 1 0 1 3.29761 6.32806 9.59896
606 1 1 0 1 -5.50428 -3.15705 15.4642
607 1 1 0 1 -1.48881 7.52228 9.38145
608 1 1 0 1 -1.61561 0.0845413 11.4312
609 1 1 0 1 5.86364 10.3001 12.4407
610 1 1 0 1 1.14532 6.09076 14.2858
611 1 1 0 1 -1.31611 4.05111 9.92235
612 1 1 0 1 2.29153 2.82765 18.981
613 1 1 0 1 -2.21743 2.31016 15.9924
614 1 1 0 1 -6.66834 5.05313 24.741
615 1 1 0 1 -8.73712 6.19712 22.7513
616 1 1 0 1 -2.16861 6.86015 18.627
617 1 1 0 1 0.450386 2.4952 2.67847
618 1 1 0 1 -6.35914 6.71439 -1.51673
619 1 1 0 1 -2.01121 15.9558 2.52107
620 1 1 0 1 2.34581 8.32792 3.23859
621 1 1 0 1 -4.74989 4.45618 3.55914
622 1 1 0 1 -7.61696 8.1535 7.00889
623 1 1 0 1 -9.85939 5.5396 2.92619
624 1 1 0 1 -2.73089 2.49763 5.2129
625 1 1 0 1 -4.90078 7.79891 7.4714
626 1 1 0 1 -0.132808 7.92448 13.8808
627 1 1 0 1 -5.29114 -0.323636 14.8762
628 1 1 0 1 3.96226 2.59276 7.78706
629 1 1 0 1 1.64743 11.0225 10.9146
630 1 1 0 1 2.22767 13.2376 14.4087
631 1 1 0 1 -1.09323 10.7409 14.0139
632 1 1 0 1 2.47738 5.2902 16.8169
633 1 1 0 1 -12.356 8.54852 17.7159
634 1 1 0 1 -3.50568 7.5704 19.4567
635 1 1 0 1 -0.555836 6.69771 15.9343
636 1 1 0 1 -2.93277 2.35411 14.9514
637 1 1 0 1 -5.58573 4.43349 19.7551
638 1 1 0 1 -4.55305 4.49731 22.3681
639 1 1 0 1 -5.09283 3.12089 5.64591
640 1 1 0 1 1.2166 8.02957 3.12214
641 1 1 0 1 2.70663 6.79236 1.9176
642 1 1 0 1 0.942329 7.54131 1.88265
643 1 1 0 1 -2.7533 12.8784 3.38228
644 1 1 0 1 -3.3512 5.63071 3.43186
645 1 1 0 1 -4.39482 8.47083 5.08654
646 1 1 0 1 2.63602 3.19212 6.76689
647 1 1 0 1 -1.94828 9.09907 0.647964
648 1 1 0 1 -6.53649 10.9352 11.3984
649 1 1 0 1 -2.43185 10.5344 7.30744
650 1 1 0 1 3.02828 8.98014 11.0181
651 1 1 0 1 1.11621 9.54637 7.1952
652 1 1 0 1 -1.9725 16.4943 16.3346
653 1 1 0 1 -5.44514 16.677 14.8996
654 1 1 0 1 1.44375 9.40467 21.5999
655 1 1 0 1 -2.90068 6.68997 12.1881
656 1 1 0 1 -5.32756 3.92712 16.6678
657 1 1 0 1 3.19322 7.76786 17.5029
658 1 1 0 1 4.83511 9.99297 23.834
659 1 1 0 1 -5.64504 6.59091 14.3881
660 1 1 0 1 0.853679 7.85753 21.1352
661 1 1 0 1 -2.49052 9.72781 -0.588866
662 1 1 0 1 -0.917691 10.2702 -1.19603
663 1 1 0 1 -6.74477 5.01665 4.38468
664 1 1 0 1 -4.04544 10.1104 7.82143
665 1 1 0 1 -6.38211 3.48289 5.45258
666 1 1 0 1 2.52044 8.68229 13.2493
667 1 1 0 1 -6.63334 6.59794 1.98934
668 1 1 0 1 -7.68544 4.47248 3.86276
669 1 1 0 1 -1.35742 7.39406 3.93868
670 1 1 0 1 -2.3083 7.76161 6.02086
671 1 1 0 1 0.0866521 1.65376 7.54656
672 1 1 0 1 -1.84827 15.5466 14.2185
673 1 1 0 1 -3.4649 12.4963 14.2844
674 1 1 0 1 -0.853472 9.92643 16.1618
675 1 1 0 1 -1.4538 11.3001 17.5446
676 1 1 0 1 -6.78564 6.9317 15.7789
677 1 1 0 1 -3.96789 11.4374 21.0339
678 1 1 0 1 2.24021 5.87249 19.8921
679 1 1 0 1 -4.42222 8.14809 19.3303
680 1 1 0 1 -2.51541 7.68873 13.0956
681 1 1 0 1 -0.401495 11.0065 18.0641
682 1 1 0 1 2.57467 8.88125 23.0852
683 1 1 0 1 -0.530036 11.953 5.58448
684 1 1 0 1 -1.58891 4.74527 0.455078
685 1 1 0 1 -2.10077 17.5123 12.6806
686 1 1 0 1 1.2429 5.85992 6.16965
687 1 1 0 1 1.71168 18.5844 4.43816
688 1 1 0 1 -1.13226 13.6346 5.73115
689 1 1 0 1 -3.19232 4.03879 6.82359
690 1 1 0 1 0.102459 7.27868 12.427
691 1 1 0 1 1.40355 2.43784 5.98541
692 1 1 0 1 1.86349 6.98646 11.497
693 1 1 0 1 -0.53083 7.04115 17.1493
694 1 1 0 1 -4.07965 14.7031 16.6738
695 1 1 0 1 -5.05685 9.46242 17.7193
696 1 1 0 1 -1.22459 5.41559 18.7757
697 1 1 0 1 -4.75927 12.9137 16.1706
698 1 1 0 1 -8.28363 12.1526 22.3399
699 1 1 0 1 -0.876634 8.41939 21.28
700 1 1 0 1 -2.76508 15.8151 14.6138
701 1 1 0 1 -0.539589 9.39108 20.3745
702 1 1 0 1 -3.36433 5.34878 16.8218
703 1 1 0 1 -0.191067 12.0039 18.6148
704 1 1 0 1 -2.63087 19.0761 21.3851
705 1 1 0 1 0.567876 12.4329 2.80884
706 1 1 0 1 -1.91193 6.77334 0.885249
707 1 1 0 1 -1.51437 23.1236 -0.995811
708 1 1 0 1 -0.363217 7.57079 -0.891915
709 1 1 0 1 -2.71577 10.186 4.4308
710 1 1 0 1 -3.0385 13.6478 5.01258
711 1 1 0 1 -3.84353 7.69306 7.25167
712 1 1 0 1 -3.93705 9.23351 12.5036
713 1 1 0 1 -5.09201 11.8218 8.38772
714 1 1 0 1 -0.027515 8.46882 6.31734
715 1 1 0 1 -4.18741 13.9241 14.4069
716 1 1 0 1 -1.77619 12.4778 16.1287
717 1 1 0 1 -5.77761 14.0654 13.3042
718 1 1 0 1 -1.54602 11.7202 15.1324
719 1 1 0 1 -4.14716 10.284 18.3001
720 1 1 0 1 0.142859 9.78192 18.2486
721 1 1 0 1 -6.20182 12.1737 14.9174
722 1 1 0 1 4.22247 14.6292 25.3144
723 1 1 0 1 0.064084 8.35822 15.8323
724 1 1 0 1 -0.830533 15.4874 20.7111
725 1 1 0 1 -0.155426 15.2107 25.3581
726 1 1 0 1 -1.34261 14.6878 25.0958
727 1 1 0 1 0.917783 13.2943 0.593012
728 1 1 0 1 -4.66199 11.3534 -3.66995
729 1 1 0 1 -6.81553 7.80989 -2.78186
730 1 1 0 1 0.507138 17.3921 2.87139
731 1 1 0 1 1.12349 14.6265 4.62584
732 1 1 0 1 4.11806 10.0149 2.71943
733 1 1 0 1 -4.28952 9.9 5.94771
734 1 1 0 1 -0.447627 5.33413 7.32567
735 1 1 0 1 -0.510491 17.3019 3.13624
736 1 1 0 1 -5.44671 12.3846 3.74858
737 1 1 0 1 1.66715 10.2781 12.2219
738 1 1 0 1 8.13113 16.5497 10.8662
739 1 1 0 1 -4.21185 8.1845 12.7588
740 1 1 0 1 -2.54134 11.263 21.2611
741 1 1 0 1 -1.63356 6.6171 17.3703
742 1 1 0 1 0.707186 7.58437 22.137
743 1 1 0 1 -0.728256 10.3573 22.34
744 1 1 0 1 1.57997 13.5561 26.4969
745 1 1 0 1 -0.525446 9.11645 22.3508
746 1 1 0 1 -2.3712 9.42591 19.9224
747 1 1 0 1 1.29264 13.2813 24.659
748 1 1 0 1 1.14765 14.1944 25.4907
749 1 1 0 1 -0.692347 14.8611 5.72345
750 1 1 0 1 -0.521793 8.45208 4.93833
751 1 1 0 1 -7.52563 12.9024 3.1867
752 1 1 0 1 0.385053 17.6539 1.34285
753 1 1 0 1 0.797209 12.0675 5.47033
754 1 1 0 1 0.221747 8.44511 1.59218
755 1 1 0 1 3.25808 15.9245 4.36362
756 1 1 0 1 -6.40496 18.9425 4.7621
757 1 1 0 1 -2.35396 12.7513 14.2406
758 1 1 0 1 -2.91343 14.3338 13.0179
759 1 1 0 1 -5.78779 9.49069 10.6486
760 1 1 0 1 1.3682 7.02817 14.5534
761 1 1 0 1 -1.31556 16.8707 15.5163
762 1 1 0 1 -2.41993 13.8849 10.3196
763 1 1 0 1 -3.14424 15.1102 12.2953
764 1 1 0 1 -4.4815 16.2048 15.1168
765 1 1 0 1 -0.562869 14.5136 21.4938
766 1 1 0 1 -0.523716 12.0742 17.5709
767 1 1 0 1 -2.84522 14.8955 20.5153
768 1 1 0 1 -3.12079 11.731 23.3012
769 1 1 0 1 2.77093 9.75225 22.0336
770 1 1 0 1 -4.05007 16.4249 25.5561
771 1 1 0 1 -2.93592 15.7124 3.28659
772 1 1 0 1 -1.74091 12.2991 11.1336
773 1 1 0 1 -2.11778 13.6373 2.7616
774 1 1 0 1 -0.248364 13.8595 9.2163
775 1 1 0 1 -7.50873 14.4443 1.02763
776 1 1 0 1 0.278205 11.3786 6.16703
777 1 1 0 1 -3.38607 17.3476 8.04794
778 1 1 0 1 -1.61419 13.6434 8.38128
779 1 1 0 1 -0.261072 15.4659 15.1248
780 1 1 0 1 -4.5488 16.3439 12.3068
781 1 1 0 1 3.02834 12.5993 19.2515
782 1 1 0 1 -3.6565 15.8773 16.6841
783 1 1 0 1 -5.74214 18.9603 14.3284
784 1 1 0 1 -0.782526 17.0279 20.3729
785 1 1 0 1 -3.73709 17.9041 16.2118
786 1 1 0 1 -2.03489 13.3553 20.9809
787 1 1 0 1 4.06853 15.3569 19.7105
788 1 1 0 1 -8.77454 17.8755 15.5516
789 1 1 0 1 -5.04945 17.2012 18.5913
790 1 1 0 1 1.02023 13.0351 25.5948
791 1 1 0 1 1.38629 11.4366 19.5407
792 1 1 0 1 -0.85833 9.68355 23.2193
793 1 1 0 1 -7.00301 11.9763 0.552317
794 1 1 0 1 2.93277 16.5062 3.61702
795 1 1 0 1 1.28648 16.2253 0.169451
796 1 1 0 1 -2.65997 18.1144 6.95302
797 1 1 0 1 -4.17649 17.5081 4.61933
798 1 1 0 1 -5.02643 16.581 2.95022
799 1 1 0 1 -4.15862 16.6593 9.14506
800 1 1 0 1 2.87112 6.19569 4.83311
801 1 1 0 1 5.51183 13.4697 11.5826
802 1 1 0 1 -3.34084 18.7086 10.8727
803 1 1 0 1 -2.82281 16.2663 15.7287
804 1 1 0 1 -2.31667 14.5602 11.7073
805 1 1 0 1 -2.49153 16.5585 17.3062
806 1 1 0 1 1.44966 8.87104 7.83778
807 1 1 0 1 -3.31636 17.9455 15.0424
808 1 1 0 1 0.142032 23.2551 10.4956
809 1 1 0 1 -5.53611 18.435 16.3838
810 1 1 0 1 -0.843853 17.0841 24.1293