ITEM: TIMESTEP
9000
ITEM: NUMBER OF ATOMS
6752
ITEM: BOX BOUNDS pp pp pp
0.0000000000000000e+00 2.2000000000000000e+01
0.0000000000000000e+00 2.2000000000000000e+01
0.0000000000000000e+00 2.2000000000000000e+01
ITEM: ATOMS id mol type q mass xu yu zu
1 1 1 0 1 -4.24007 -6.17879 -2.10725
2 1 1 0 1 -5.31343 0.838984 1.84634
3 1 1 0 1 -0.807793 2.35673 4.97115
4 1 1 0 1 -5.91827 -2.92484 8.39634
5 1 1 0 1 -1.2015 3.25077 4.19364
6 1 1 0 1 -2.40645 -0.467981 8.60159
7 1 1 0 1 -5.18716 6.19142 7.97826
8 1 1 0 1 -1.79734 -3.59727 12.1858
9 1 1 0 1 -0.0472234 1.65496 9.90503
10 1 1 0 1 -7.08493 2.93044 8.20436
11 1 1 0 1 -5.31443 2.25428 7.35215
12 1 1 0 1 -5.67303 -2.20738 13.3868
13 1 1 0 1 -1.04303 -0.0101282 12.6645
14 1 1 0 1 -1.11188 6.7731 12.7604
15 1 1 0 1 -8.71829 7.17545 15.4499
16 1 1 0 1 -6.44294 -3.2836 14.2847
17 1 1 0 1 2.01458 1.18978 14.0897
18 1 1 0 1 -2.78946 3.11266 21.5836
19 1 1 0 1 -2.56449 2.9614 19.9839
20 1 1 0 1 -0.435655 -3.37656 16.0944
21 1 1 0 1 -4.68213 4.10579 16.2685
22 1 1 0 1 -3.88519 9.0855 17.6901
23 1 1 0 1 -3.15398 4.25835 5.49965
24 1 1 0 1 -5.85553 0.995029 0.834064
25 1 1 0 1 -4.9983 -1.86745 -2.81025
26 1 1 0 1 0.702342 0.0485484 5.57606
27 1 1 0 1 -3.80737 -0.632205 8.11928
28 1 1 0 1 -4.91315 1.63103 1.34703
29 1 1 0 1 -2.64985 0.790429 11.4523
30 1 1 0 1 -1.8818 -1.36142 8.97481
31 1 1 0 1 -4.3779 7.165 13.555
32 1 1 0 1 -5.9574 -3.96377 8.20973
33 1 1 0 1 -4.01201 2.60957 14.207
34 1 1 0 1 0.605524 2.10835 11.7553
35 1 1 0 1 -3.99988 0.590275 14.1469
36 1 1 0 1 -1.31161 1.36303 8.4597
37 1 1 0 1 -7.78257 0.522644 14.3228
38 1 1 0 1 -1.65759 0.358317 17.4345
39 1 1 0 1 -0.34506 0.56366 13.7349
40 1 1 0 1 -3.12042 6.80828 21.8597
41 1 1 0 1 -5.43045 2.1334 16.7739
42 1 1 0 1 -8.1255 4.45946 24.0844
43 1 1 0 1 -2.25314 8.64379 22.8445
44 1 1 0 1 -1.55242 6.84579 17.44
45 1 1 0 1 -8.91174 7.19466 6.25779
46 1 1 0 1 -9.48289 7.15284 8.85295
47 1 1 0 1 -2.11018 2.35155 -2.9357
48 1 1 0 1 -10.211 3.20553 3.73541
49 1 1 0 1 -0.0639925 8.87711 2.4202
50 1 1 0 1 -4.95438 6.36759 0.758473
51 1 1 0 1 -3.68406 6.02146 6.54985
52 1 1 0 1 -0.580625 4.70719 15.1883
53 1 1 0 1 -3.80426 2.28958 4.30124
54 1 1 0 1 -3.57174 0.14701 13.4034
55 1 1 0 1 -6.06776 3.03679 9.88622
56 1 1 0 1 -1.56859 -0.0877323 11.4593
57 1 1 0 1 -4.64635 9.86771 11.4151
58 1 1 0 1 -1.0822 7.46793 15.5789
59 1 1 0 1 -2.62048 1.98683 16.0758
60 1 1 0 1 0.932454 4.4224 17.9109
61 1 1 0 1 -4.42244 4.67688 13.0026
62 1 1 0 1 0.170576 2.59238 19.0899
63 1 1 0 1 -2.98971 15.3584 9.93109
64 1 1 0 1 -4.434 1.78427 18.794
65 1 1 0 1 -7.64284 4.73488 20.6209
66 1 1 0 1 -8.25532 2.1079 25.271
67 1 1 0 1 -7.28334 2.53847 -0.372507
68 1 1 0 1 -3.71413 4.66687 -6.14734
69 1 1 0 1 -1.13521 6.51124 -0.134759
70 1 1 0 1 -3.93694 5.70812 3.94949
71 1 1 0 1 -0.20813 4.67192 4.61985
72 1 1 0 1 -9.39357 5.79385 4.72957
73 1 1 0 1 4.05309 2.70249 9.46099
74 1 1 0 1 -6.27457 3.6368 8.49546
75 1 1 0 1 -4.78633 3.51332 8.08771
76 1 1 0 1 -6.40979 1.25106 7.87733
77 1 1 0 1 -3.18933 -2.93346 9.58973
78 1 1 0 1 -2.51449 4.93271 13.1023
79 1 1 0 1 -3.60024 0.569079 10.8926
80 1 1 0 1 2.81422 1.43199 10.6097
81 1 1 0 1 -0.155295 6.1428 12.9602
82 1 1 0 1 -0.696428 2.43677 15.6813
83 1 1 0 1 -3.42707 4.59322 18.272
84 1 1 0 1 -1.59109 2.50349 16.1738
85 1 1 0 1 -4.24735 1.8383 25.2435
86 1 1 0 1 -3.79109 5.55009 20.1582
87 1 1 0 1 -6.41332 -1.17042 24.609
88 1 1 0 1 -1.71703 8.49315 20.9815
89 1 1 0 1 -2.07173 7.7681 -0.240575
90 1 1 0 1 -0.0814956 8.90106 8.05174
91 1 1 0 1 -4.85201 0.309537 6.18877
92 1 1 0 1 -3.44247 8.30769 7.57933
93 1 1 0 1 -6.38857 9.98011 7.94334
94 1 1 0 1 -5.24119 -0.35657 6.85647
95 1 1 0 1 -4.04898 7.03172 8.84616
96 1 1 0 1 -1.4342 4.17813 11.1408
97 1 1 0 1 -1.79281 7.90123 11.6284
98 1 1 0 1 -0.509446 6.22318 3.38186
99 1 1 0 1 -5.09394 9.00776 12.3494
100 1 1 0 1 -2.53548 2.66265 7.94981
101 1 1 0 1 -4.72059 3.00632 12.9483
102 1 1 0 1 -3.49032 5.94851 15.684
103 1 1 0 1 -9.37774 14.9591 11.8208
104 1 1 0 1 -4.44942 8.68945 15.9459
105 1 1 0 1 -3.12487 9.63159 10.4274
106 1 1 0 1 -2.89687 1.88532 19.7706
107 1 1 0 1 -5.39063 12.0369 18.1995
108 1 1 0 1 -2.53428 6.06646 19.2316
109 1 1 0 1 -4.34394 8.47885 19.2199
110 1 1 0 1 -3.45975 8.43326 23.1802
111 1 1 0 1 -6.79466 2.14141 2.67707
112 1 1 0 1 -2.92124 5.13483 -0.656072
113 1 1 0 1 -0.672976 15.714 10.8366
114 1 1 0 1 -3.11494 2.48547 3.43735
115 1 1 0 1 -1.30841 11.3912 3.24179
116 1 1 0 1 -1.71353 11.4784 1.51025
117 1 1 0 1 0.230654 10.4662 7.23642
118 1 1 0 1 -4.03262 4.71581 7.0835
119 1 1 0 1 -3.70606 0.530428 9.59935
120 1 1 0 1 -1.42911 0.586995 9.54891
121 1 1 0 1 -2.1335 3.21813 11.0638
122 1 1 0 1 -3.82103 6.36557 12.2509
123 1 1 0 1 -3.67615 6.27614 14.3904
124 1 1 0 1 -7.00345 9.2573 13.957
125 1 1 0 1 -6.93979 10.4941 8.88796
126 1 1 0 1 -6.91647 7.35125 14.5513
127 1 1 0 1 -2.42335 6.49016 15.5717
128 1 1 0 1 -7.80035 12.6212 16.5486
129 1 1 0 1 -1.44631 6.44327 20.096
130 1 1 0 1 -5.45198 4.17326 21.4888
131 1 1 0 1 -3.57484 2.87594 15.6863
132 1 1 0 1 -4.90126 4.74583 24.0862
133 1 1 0 1 -4.27682 6.49044 -0.0481737
134 1 1 0 1 -8.35608 5.12914 4.90136
135 1 1 0 1 -5.63405 2.81654 4.3798
136 1 1 0 1 -0.902212 12.2079 2.26421
137 1 1 0 1 -7.23629 8.33874 6.43572
138 1 1 0 1 -5.90785 9.54126 6.89376
139 1 1 0 1 -2.85277 7.71889 5.06712
140 1 1 0 1 -5.3918 8.91517 2.18007
141 1 1 0 1 7.2001 4.2909 1.7146
142 1 1 0 1 -2.44082 2.2032 11.8295
143 1 1 0 1 -1.22719 4.34856 12.1892
144 1 1 0 1 -2.74291 3.81479 9.16907
145 1 1 0 1 -2.57379 7.33849 17.0632
146 1 1 0 1 -4.47742 11.0058 18.3745
147 1 1 0 1 -3.05496 10.6691 15.0764
148 1 1 0 1 -6.52191 11.4454 13.5417
149 1 1 0 1 -3.43239 12.3294 19.8566
150 1 1 0 1 -6.69555 7.71341 16.5781
151 1 1 0 1 -4.686 3.21119 22.865
152 1 1 0 1 -4.00828 5.07289 19.1246
153 1 1 0 1 -2.31501 6.42867 18.1734
154 1 1 0 1 -3.13321 7.70771 25.9206
155 1 1 0 1 -1.86731 4.54697 -1.31061
156 1 1 0 1 -4.05297 2.74329 2.52728
157 1 1 0 1 -2.45489 6.61018 4.11072
158 1 1 0 1 -1.10679 9.04026 3.10958
159 1 1 0 1 -4.44403 9.00696 -0.68452
160 1 1 0 1 -8.51015 4.33296 4.11262
161 1 1 0 1 -0.0519316 9.49813 3.82394
162 1 1 0 1 -5.44691 8.94218 3.98369
163 1 1 0 1 0.68781 6.90755 7.99638
164 1 1 0 1 -6.39012 5.74536 13.8114
165 1 1 0 1 -1.97026 10.6239 7.37232
166 1 1 0 1 0.430912 8.32353 15.5753
167 1 1 0 1 -4.35546 10.8468 13.3452
168 1 1 0 1 -1.32189 11.1058 18.2724
169 1 1 0 1 -8.00903 9.8696 17.1268
170 1 1 0 1 -1.00398 8.95569 20.3639
171 1 1 0 1 1.84717 10.0683 16.8655
172 1 1 0 1 -2.13364 7.85229 19.9311
173 1 1 0 1 -2.74475 5.24725 15.3769
174 1 1 0 1 -2.07524 3.69487 24.1692
175 1 1 0 1 -4.27283 9.13063 23.5371
176 1 1 0 1 0.979915 9.11901 21.8574
177 1 1 0 1 -4.47075 4.35388 3.42653
178 1 1 0 1 0.346146 16.7834 6.02368
179 1 1 0 1 -4.62949 15.3948 1.93425
180 1 1 0 1 -2.50853 8.25942 3.04268
181 1 1 0 1 -2.38938 11.2149 5.9421
182 1 1 0 1 -5.33811 15.098 5.69009
183 1 1 0 1 -1.32364 7.38779 3.7687
184 1 1 0 1 -1.91273 11.852 7.92412
185 1 1 0 1 -3.85451 3.02449 10.1104
186 1 1 0 1 -10.9782 11.5066 8.05919
187 1 1 0 1 -6.56547 12.3751 9.86148
188 1 1 0 1 -1.80523 2.89121 9.08868
189 1 1 0 1 1.68863 13.3665 12.299
190 1 1 0 1 -2.80741 8.07833 16.4136
191 1 1 0 1 -3.03176 12.7353 18.4565
192 1 1 0 1 -2.62891 11.4687 19.9559
193 1 1 0 1 -4.26186 6.12148 17.4168
194 1 1 0 1 -0.530534 10.7481 21.7396
195 1 1 0 1 -3.05162 9.59865 17.7948
196 1 1 0 1 -3.28214 2.68661 18.4078
197 1 1 0 1 -2.72506 8.72525 17.233
198 1 1 0 1 3.0355 9.34769 22.9263
199 1 1 0 1 2.43231 7.85257 0.808574
200 1 1 0 1 0.681342 7.8743 2.52249
201 1 1 0 1 -4.53012 8.4469 0.781767
202 1 1 0 1 -3.91833 8.56384 3.84985
203 1 1 0 1 -6.18152 12.4874 3.68848
204 1 1 0 1 -1.1759 9.07234 5.08457
205 1 1 0 1 -1.96179 8.4817 6.30739
206 1 1 0 1 1.09658 8.40069 6.51506
207 1 1 0 1 -4.92929 4.38347 5.30986
208 1 1 0 1 -2.71796 7.77238 13.4633
209 1 1 0 1 -4.15887 5.20326 9.8429
210 1 1 0 1 -2.83373 9.22065 15.1046
211 1 1 0 1 -1.42171 7.06161 10.4035
212 1 1 0 1 -4.27561 10.95 10.2592
213 1 1 0 1 3.28074 14.5033 18.4344
214 1 1 0 1 -7.13925 13.9156 19.2958
215 1 1 0 1 -5.03551 11.734 17.1163
216 1 1 0 1 -2.4697 9.47763 19.7532
217 1 1 0 1 -5.29266 12.3554 26.9266
218 1 1 0 1 -2.80889 9.82554 18.8312
219 1 1 0 1 0.984412 11.332 21.5709
220 1 1 0 1 -2.40362 10.4006 20.3856
221 1 1 0 1 3.87677 11.1629 -4.08403
222 1 1 0 1 -4.72369 8.63688 2.98408
223 1 1 0 1 -6.28178 13.6918 4.08098
224 1 1 0 1 -4.05728 11.3815 4.169
225 1 1 0 1 -7.31377 16.0343 6.15636
226 1 1 0 1 -8.55453 13.7279 6.49752
227 1 1 0 1 -8.67097 12.4862 7.27821
228 1 1 0 1 -1.69058 13.5267 5.21117
229 1 1 0 1 -0.366232 9.74 8.5243
230 1 1 0 1 -2.16375 12.0744 4.99784
231 1 1 0 1 -2.9128 10.4606 13.4578
232 1 1 0 1 -0.653535 3.22695 13.0495
233 1 1 0 1 -2.13985 11.8642 12.4447
234 1 1 0 1 -8.50768 10.2139 14.8548
235 1 1 0 1 0.52116 12.028 19.757
236 1 1 0 1 -11.299 12.8787 15.1159
237 1 1 0 1 -4.81859 15.2056 19.383
238 1 1 0 1 -4.88356 13.3665 15.5669
239 1 1 0 1 -2.9372 13.4069 17.3386
240 1 1 0 1 -3.95944 11.3294 17.3927
241 1 1 0 1 -1.324 11.2663 19.3247
242 1 1 0 1 -1.13888 8.63048 22.2418
243 1 1 0 1 -1.51129 10.414 0.978372
244 1 1 0 1 -4.31916 13.4005 1.38473
245 1 1 0 1 -5.56427 12.5064 2.51347
246 1 1 0 1 -1.69415 13.1513 4.2251
247 1 1 0 1 -5.68097 11.4924 5.68109
248 1 1 0 1 -2.32735 4.80113 6.5686
249 1 1 0 1 -2.92992 11.4298 4.4365
250 1 1 0 1 -1.1446 8.09466 10.8103
251 1 1 0 1 -2.91107 9.0413 8.20215
252 1 1 0 1 0.18778 6.04257 9.05912
253 1 1 0 1 -0.208502 4.15567 12.5381
254 1 1 0 1 2.90348 9.90429 10.2045
255 1 1 0 1 -7.05875 9.43529 8.68951
256 1 1 0 1 -9.62767 15.4235 13.3881
257 1 1 0 1 -1.48175 16.1801 18.5682
258 1 1 0 1 -1.63154 12.9447 12.4622
259 1 1 0 1 -0.732407 14.284 17.3724
260 1 1 0 1 -0.333582 11.0154 15.2915
261 1 1 0 1 -4.75422 9.18533 18.4607
262 1 1 0 1 -3.20452 15.4114 23.5406
263 1 1 0 1 -1.86213 9.98735 18.2452
264 1 1 0 1 1.50945 18.4073 23.1477
265 1 1 0 1 -0.894736 13.8029 1.66825
266 1 1 0 1 3.25408 14.871 2.21707
267 1 1 0 1 -2.69573 13.3046 3.43843
268 1 1 0 1 -6.12643 11.463 -0.330485
269 1 1 0 1 0.244497 9.64789 9.28895
270 1 1 0 1 -2.95255 13.0195 0.407847
271 1 1 0 1 -4.01256 8.93315 6.97416
272 1 1 0 1 -6.68261 15.2248 8.30169
273 1 1 0 1 -4.23555 13.3834 5.26992
274 1 1 0 1 -4.01164 8.19195 10.7903
275 1 1 0 1 -8.36796 5.06042 11.4555
276 1 1 0 1 -3.75004 11.3294 12.5282
277 1 1 0 1 -3.69053 12.2085 8.08971
278 1 1 0 1 -1.61647 16.1744 11.9931
279 1 1 0 1 -5.71353 14.6505 12.12
280 1 1 0 1 -8.25589 16.3964 5.15772
281 1 1 0 1 -0.0312089 13.1023 19.3614
282 1 1 0 1 -3.15206 14.0346 8.36065
283 1 1 0 1 0.804833 16.4261 15.9368
284 1 1 0 1 0.0565843 13.8122 18.4067
285 1 1 0 1 -3.62756 9.55216 19.5859
286 1 1 0 1 -5.18129 13.3354 19.7721
287 1 1 0 1 -3.32274 19.4449 2.84532
288 1 1 0 1 -1.04534 11.6746 4.39209
289 1 1 0 1 -5.89596 5.20821 6.94544
290 1 1 0 1 -3.8707 8.30113 2.5259
291 1 1 0 1 -7.73526 8.04783 14.3766
292 1 1 0 1 -5.60777 16.2108 7.87743
293 1 1 0 1 0.485431 12.4818 6.16334
294 1 1 0 1 -4.59817 11.6556 8.2419
295 1 1 0 1 -3.36549 10.1356 8.71633
296 1 1 0 1 -5.43348 11.2357 13.6571
297 1 1 0 1 -3.61934 14.9789 8.1516
298 1 1 0 1 -5.44079 9.64386 13.6632
299 1 1 0 1 1.04418 18.1681 14.2744
300 1 1 0 1 0.898562 14.2303 18.7892
301 1 1 0 1 -7.6614 15.5042 13.9645
302 1 1 0 1 -3.89127 13.7377 15.1304
303 1 1 0 1 -4.64999 15.4547 15.7215
304 1 1 0 1 -2.2859 11.1753 9.08032
305 1 1 0 1 1.25563 10.7974 16.2858
306 1 1 0 1 -1.88503 19.0609 23.3746
307 1 1 0 1 -1.61161 12.8321 14.2482
308 1 1 0 1 0.645914 18.1952 30.2586
309 1 1 0 1 -2.49173 13.7357 1.93728
310 1 1 0 1 -2.56731 10.6981 1.6115
311 1 1 0 1 -7.4957 16.4121 -0.438056
312 1 1 0 1 -9.89313 10.0757 5.30762
313 1 1 0 1 -6.84583 15.8404 2.91423
314 1 1 0 1 -0.102338 9.19686 5.73623
315 1 1 0 1 -1.87918 10.4882 10.1674
316 1 1 0 1 -4.34132 13.5505 2.63203
317 1 1 0 1 -5.68259 16.3482 6.27764
318 1 1 0 1 -2.8531 15.5354 8.71392
319 1 1 0 1 -2.98005 13.0485 7.04612
320 1 1 0 1 2.1358 20.009 13.8705
321 1 1 0 1 -0.544727 12.868 15.2002
322 1 1 0 1 -0.371556 8.69895 12.844
323 1 1 0 1 -1.76384 13.1813 7.10375
324 1 1 0 1 -5.33908 10.6763 8.37579
325 1 1 0 1 -3.30672 14.2848 12.5519
326 1 1 0 1 -8.48613 16.8465 19.0108
327 1 1 0 1 -1.04526 13.6314 18.4215
328 1 1 0 1 -5.04796 15.0551 20.5154
329 1 1 0 1 -1.19942 12.8889 19.496
330 1 1 0 1 -3.58578 14.1522 23.7509
331 1 1 0 1 -2.36744 17.9739 4.64829
332 1 1 0 1 1.34281 17.8361 3.66183
333 1 1 0 1 -1.16085 14.5973 4.1882
334 1 1 0 1 -6.25196 17.4513 1.06856
335 1 1 0 1 -2.89111 15.5893 7.30164
336 1 1 0 1 -8.71718 11.1581 3.60344
337 1 1 0 1 -3.34864 9.70997 7.61035
338 1 1 0 1 -2.90809 13.4697 9.44128
339 1 1 0 1 -6.39711 13.7281 5.1495
340 1 1 0 1 2.12214 14.2065 8.31287
341 1 1 0 1 -5.16949 11.1325 9.38336
342 1 1 0 1 -6.08169 14.6669 14.5021
343 1 1 0 1 -7.37687 14.9806 5.76639
344 1 1 0 1 -8.55652 15.0355 13.5023
345 1 1 0 1 -7.99043 14.2202 16.999
346 1 1 0 1 5.90702 16.4144 15.4008
347 1 1 0 1 -2.02664 13.092 18.7697
348 1 1 0 1 -2.9442 15.5549 16.8333
349 1 1 0 1 0.61757 16.8025 15.0244
350 1 1 0 1 -0.635504 12.6327 18.5891
351 1 1 0 1 -6.55069 15.9715 15.9389
352 1 1 0 1 -0.960054 18.6117 22.9048
353 1 1 0 1 -6.41052 15.9949 3.77802
354 1 1 0 1 2.70406 18.3386 1.73707
355 1 1 0 1 -4.07084 12.8618 6.9783
356 1 1 0 1 -5.24598 14.2437 4.93264
357 1 1 0 1 -0.188612 16.9777 2.40584
358 1 1 0 1 -3.75042 13.5203 3.65166
359 1 1 0 1 -5.43758 16.65 4.74041
360 1 1 0 1 0.335819 15.1566 9.50536
361 1 1 0 1 -5.72212 13.8758 10.9009
362 1 1 0 1 0.516292 15.3498 12.3157
363 1 1 0 1 -0.195578 15.9647 11.9159
364 1 1 0 1 0.533926 16.9816 11.8015
365 1 1 0 1 -3.88254 8.42452 4.86833
366 1 1 0 1 -5.45724 13.6252 14.7253
367 1 1 0 1 -3.18495 12.419 9.63247
368 1 1 0 1 -4.2971 15.2038 16.8723
369 1 1 0 1 -8.42583 12.5537 13.9075
370 1 1 0 1 -2.63274 6.85238 8.29988
371 1 1 0 1 -0.102348 17.1693 22.2685
372 1 1 0 1 -3.74034 12.9984 17.7975
373 1 1 0 1 -7.00289 12.1619 20.6785
374 1 1 0 1 -5.09574 16.296 24.6471
375 1 1 0 1 -5.5537 6.80205 4.94222
376 1 1 0 1 -6.67085 9.84064 3.39614
377 1 1 0 1 -5.74208 17.5625 2.28679
378 1 1 0 1 -5.3765 15.978 3.96608
379 1 1 0 1 -4.40317 14.3182 -0.328864
380 1 1 0 1 -7.01429 13.8239 2.28133
381 1 1 0 1 -4.55141 17.0865 5.37856
382 1 1 0 1 -8.95935 18.7844 12.3039
383 1 1 0 1 -1.8946 17.3966 11.425
384 1 1 0 1 1.4517 16.3546 11.5791
385 1 1 0 1 -2.77094 17.2935 14.2952
386 1 1 0 1 -3.63078 14.6642 10.4708
387 1 1 0 1 -7.06344 13.7339 16.3364
388 1 1 0 1 -3.27009 15.3204 18.0155
389 1 1 0 1 -6.0455 13.0326 15.3786
390 1 1 0 1 -1.97145 15.0185 19.1263
391 1 1 0 1 -4.96607 16.9436 16.578
392 1 1 0 1 -7.52114 15.374 11.9189
393 1 1 0 1 -1.57335 10.0776 16.2928
394 1 1 0 1 -5.6222 17.556 19.4362
395 1 1 0 1 -7.18276 12.9157 14.844
396 1 1 0 1 -2.48349 15.0963 21.168
397 1 1 0 1 0.177553 18.4451 1.29641
398 1 1 0 1 -3.05596 22.9091 1.10621
399 1 1 0 1 -4.1009 14.3673 0.88703
400 1 1 0 1 -3.65626 10.5395 5.80163
401 1 1 0 1 1.086 13.2951 6.10389
402 1 1 0 1 -3.76579 17.4586 6.20338
403 1 1 0 1 -0.90936 15.239 9.61746
404 1 1 0 1 -5.39211 17.9563 3.20631
405 1 1 0 1 -7.68193 16.3256 9.50318
406 1 1 0 1 -1.42566 15.4987 7.39737
407 1 1 0 1 -6.92217 17.5157 8.20774
408 1 1 0 1 -10.2625 16.3308 9.49311
409 1 1 0 1 -5.17911 14.7024 17.0243
410 1 1 0 1 -7.02526 11.8272 14.4477
411 1 1 0 1 -0.404746 18.2437 11.4695
412 1 1 0 1 -10.7901 15.2888 10.7865
413 1 1 0 1 -5.56089 19.0052 19.8221
414 1 1 0 1 -5.89483 13.7937 17.4069
415 1 1 0 1 0.27288 14.1405 19.5426
416 1 1 0 1 -3.44909 10.5759 20.8283
417 1 1 0 1 2.84556 23.6928 22.3348
418 1 1 0 1 -0.764819 16.9139 22.9461
419 1 1 0 1 -4.46489 20.1704 5.6387
420 1 1 0 1 -0.173458 24.5279 9.25303
421 1 1 0 1 -4.90331 18.2688 5.26684
422 1 1 0 1 -3.5025 12.3454 5.04489
423 1 1 0 1 -1.06937 21.3478 4.94019
424 1 1 0 1 -3.65354 19.2739 8.37048
425 1 1 0 1 -5.43857 17.3909 5.73681
426 1 1 0 1 -0.618435 21.8929 4.21129
427 1 1 0 1 -2.13614 17.911 8.76816
428 1 1 0 1 1.79798 22.7177 5.0507
429 1 1 0 1 -2.96348 26.8425 10.4167
430 1 1 0 1 2.68394 19.2137 13.8648
431 1 1 0 1 -7.43994 15.991 15.2085
432 1 1 0 1 -0.401501 20.5876 14.9995
433 1 1 0 1 -4.39638 16.456 15.9606
434 1 1 0 1 -4.8832 14.5692 14.9994
435 1 1 0 1 -4.62788 14.0975 20.5355
436 1 1 0 1 -7.87131 19.4032 17.834
437 1 1 0 1 -1.00586 17.5082 16.748
438 1 1 0 1 -3.31174 16.555 17.4296
439 1 1 0 1 -3.40406 18.5847 19.3508
440 1 1 0 1 -4.39771 16.2755 25.3388
441 1 1 0 1 -5.89608 15.4131 -0.71874
442 1 1 0 1 -2.18793 19.4538 6.63036
443 1 1 0 1 -3.52688 19.6428 0.0234248
444 1 1 0 1 -3.44854 26.3677 0.72308
445 1 1 0 1 -4.11963 19.4931 4.00429
446 1 1 0 1 -1.66911 9.77287 11.7827
447 1 1 0 1 -4.53804 15.5465 7.93524
448 1 1 0 1 -6.07677 13.8696 7.60345
449 1 1 0 1 -5.76259 15.7263 12.5547
450 1 1 0 1 0.210479 17.7736 16.4567
451 1 1 0 1 -5.48751 17.9134 10.9145
452 1 1 0 1 -6.2869 18.0432 16.4782
453 1 1 0 1 -7.08873 14.7499 14.3971
454 1 1 0 1 -1.16453 22.4084 16.5463
455 1 1 0 1 -7.57106 10.9964 11.1687
456 1 1 0 1 -7.49517 13.6149 11.7202
457 1 1 0 1 -5.47664 21.394 14.9612
458 1 1 0 1 -9.52313 19.6608 19.2676
459 1 1 0 1 -4.06977 17.1046 17.7469
460 1 1 0 1 -4.04444 13.7602 19.5752
461 1 1 0 1 -4.74421 20.6279 13.4288
462 1 1 0 1 0.325841 20.155 18.8778
463 1 1 0 1 -1.17432 23.4443 -5.78496
464 1 1 0 1 1.32965 20.5211 1.78544
465 1 1 0 1 2.28133 26.2789 4.05431
466 1 1 0 1 1.24249 25.3884 5.67004
467 1 1 0 1 -6.47701 17.2962 9.48312
468 1 1 0 1 -4.48406 21.1771 6.12131
469 1 1 0 1 -3.50748 16.4423 9.17989
470 1 1 0 1 -2.9343 21.6659 4.0787
471 1 1 0 1 -4.66646 16.7844 8.45403
472 1 1 0 1 -0.838504 26.4357 8.46542
473 1 1 0 1 -5.28101 17.2517 13.8796
474 1 1 0 1 -2.71782 18.0052 12.1954
475 1 1 0 1 -2.22235 21.1345 13.2987
476 1 1 0 1 -0.263584 22.7865 18.6932
477 1 1 0 1 -1.74005 20.8608 16.6271
478 1 1 0 1 -2.53706 16.3386 15.3317
479 1 1 0 1 -0.542188 25.4793 15.0363
480 1 1 0 1 0.323531 22.5168 17.8958
481 1 1 0 1 0.14039 19.1172 18.5284
482 1 1 0 1 -4.24033 27.5854 16.4783
483 1 1 0 1 0.703606 20.2758 21.2942
484 1 1 0 1 1.26199 21.2997 26.1286
485 1 1 0 1 -7.36012 -0.750775 2.27374
486 1 1 0 1 -0.197582 1.64532 -2.52515
487 1 1 0 1 -1.38197 4.56289 2.16887
488 1 1 0 1 -0.711783 -0.265313 2.1844
489 1 1 0 1 -3.86077 5.88003 7.63158
490 1 1 0 1 -3.71374 0.907493 3.19972
491 1 1 0 1 -1.13666 1.71486 9.54519
492 1 1 0 1 -2.20663 -5.32083 9.1137
493 1 1 0 1 -2.46214 0.118493 9.64143
494 1 1 0 1 -4.7157 -1.22955 1.81084
495 1 1 0 1 -4.55103 -0.20671 13.6627
496 1 1 0 1 0.821361 2.6882 13.862
497 1 1 0 1 -1.35058 -1.09747 10.1755
498 1 1 0 1 -2.11953 -0.350854 16.0882
499 1 1 0 1 -3.80243 -0.688315 12.67
500 1 1 0 1 -3.53317 -4.87555 16.5833
501 1 1 0 1 0.721042 -3.64347 12.4625
502 1 1 0 1 -0.355013 -3.79526 17.1927
503 1 1 0 1 -3.67078 2.06916 16.3914
504 1 1 0 1 -5.39636 -3.07573 14.7384
505 1 1 0 1 -4.12083 -2.16956 12.9308
506 1 1 0 1 -5.59206 1.95676 21.457
507 1 1 0 1 -2.60238 2.13176 0.371368
508 1 1 0 1 -1.86629 0.842265 1.819
509 1 1 0 1 -4.01167 5.71273 -0.789854
510 1 1 0 1 -5.66436 -0.339596 -0.242446
511 1 1 0 1 0.904763 3.68734 0.265338
512 1 1 0 1 -0.417387 7.00592 7.88932
513 1 1 0 1 -3.46493 -1.34853 5.99295
514 1 1 0 1 -3.29558 0.551005 4.48109
515 1 1 0 1 1.5311 5.0514 5.6348
516 1 1 0 1 -6.1377 0.292747 7.45702
517 1 1 0 1 -4.47904 -0.123559 9.5566
518 1 1 0 1 1.12591 0.881575 6.883
519 1 1 0 1 -2.84338 2.46109 14.935
520 1 1 0 1 -1.16089 -1.35413 13.2651
521 1 1 0 1 -0.685225 2.41043 12.3441
522 1 1 0 1 -3.06992 2.66634 12.7294
523 1 1 0 1 0.198977 0.938039 16.9309
524 1 1 0 1 -0.654015 1.63515 17.2219
525 1 1 0 1 -7.87274 3.27897 23.9878
526 1 1 0 1 0.26859 -2.73044 20.9472
527 1 1 0 1 0.724706 4.0636 19.359
528 1 1 0 1 2.21324 6.35357 21.942
529 1 1 0 1 2.70113 8.95456 2.99579
530 1 1 0 1 -1.65299 -2.05956 -1.72912
531 1 1 0 1 -3.07112 7.58444 -1.65618
532 1 1 0 1 -0.706435 -3.29633 -0.477855
533 1 1 0 1 -2.90939 4.3804 1.71825
534 1 1 0 1 -0.179146 1.50372 5.00509
535 1 1 0 1 -0.811722 4.09844 3.88516
536 1 1 0 1 -1.46438 6.36376 4.00853
537 1 1 0 1 -3.11098 1.78314 8.89036
538 1 1 0 1 -3.68651 -1.46452 10.1486
539 1 1 0 1 -2.54178 6.31802 14.0531
540 1 1 0 1 -0.44842 3.06553 11.3482
541 1 1 0 1 -7.07598 6.53846 13.4966
542 1 1 0 1 -1.35614 5.14319 14.3171
543 1 1 0 1 -7.52927 7.19954 15.4346
544 1 1 0 1 3.46815 1.8848 13.0936
545 1 1 0 1 -2.14312 3.17322 14.6491
546 1 1 0 1 1.36671 0.466801 14.9424
547 1 1 0 1 -4.34545 2.70488 18.2491
548 1 1 0 1 -2.94369 5.76895 23.6949
549 1 1 0 1 -0.964222 5.20022 21.8867
550 1 1 0 1 -2.26142 2.89672 23.2614
551 1 1 0 1 -2.24557 7.24072 3.13879
552 1 1 0 1 -4.1783 6.52699 -1.68372
553 1 1 0 1 -1.19234 5.70125 2.33439
554 1 1 0 1 -1.94062 5.87165 -0.165206
555 1 1 0 1 -2.26552 5.65638 4.1307
556 1 1 0 1 -4.85441 5.25738 7.69718
557 1 1 0 1 -1.16694 3.7999 7.6298
558 1 1 0 1 -2.08296 4.5756 7.53688
559 1 1 0 1 -1.13256 1.31032 10.5541
560 1 1 0 1 -4.20415 1.76273 5.49324
561 1 1 0 1 -2.88769 1.32965 15.237
562 1 1 0 1 0.75479 4.73569 12.8225
563 1 1 0 1 -3.76061 3.29579 13.3646
564 1 1 0 1 -1.46657 -0.0613495 10.3767
565 1 1 0 1 1.69672 4.6488 14.9515
566 1 1 0 1 1.55242 5.00073 13.6663
567 1 1 0 1 -0.303067 4.93681 17.6893
568 1 1 0 1 -0.68817 5.60025 15.8713
569 1 1 0 1 -0.237161 3.68731 19.2125
570 1 1 0 1 -3.9321 1.37707 22.8485
571 1 1 0 1 4.44066 3.44615 19.8364
572 1 1 0 1 0.458371 3.34329 21.3571
573 1 1 0 1 0.580091 4.72446 -1.17738
574 1 1 0 1 -2.0762 5.40755 5.22349
575 1 1 0 1 -3.498 0.183575 -1.81123
576 1 1 0 1 -3.88841 5.18252 1.39594
577 1 1 0 1 -4.42563 4.22708 6.29625
578 1 1 0 1 -5.08945 8.47559 7.18876
579 1 1 0 1 -2.43673 7.39082 9.28795
580 1 1 0 1 -4.50289 1.01852 8.94485
581 1 1 0 1 -3.73316 10.2284 11.0266
582 1 1 0 1 0.767561 4.12752 8.13942
583 1 1 0 1 -4.23397 2.33111 9.0882
584 1 1 0 1 -1.64261 9.28768 14.4656
585 1 1 0 1 -4.44091 6.79504 15.1892
586 1 1 0 1 -1.89162 11.9645 17.4033
587 1 1 0 1 -6.93669 11.48 16.2656
588 1 1 0 1 -5.67968 5.87596 14.8374
589 1 1 0 1 -4.92809 5.3832 22.8402
590 1 1 0 1 -1.85669 5.27919 19.1262
591 1 1 0 1 -2.46108 4.015 15.2589
592 1 1 0 1 -3.12258 2.11014 24.4198
593 1 1 0 1 -1.55067 3.37029 16.9441
594 1 1 0 1 -4.72093 -0.140398 19.9187
595 1 1 0 1 -0.481337 2.58822 -1.99494
596 1 1 0 1 -4.87431 6.70729 3.24824
597 1 1 0 1 -6.26231 1.13243 5.45597
598 1 1 0 1 3.19151 1.84413 1.69843
599 1 1 0 1 3.50998 6.7135 3.86159
600 1 1 0 1 0.516965 9.15794 1.26136
601 1 1 0 1 -6.06593 6.75952 7.90364
602 1 1 0 1 4.60853 4.69414 3.67045
603 1 1 0 1 3.7286 2.73828 11.1584
604 1 1 0 1 2.87512 6.6769 9.4261
605 1 1 0 1 2.08738 5.02028 11.2635
606 1 1 0 1 -5.35504 -1.66461 12.009
607 1 1 0 1 -0.448969 8.33552 9.10948
608 1 1 0 1 -1.38716 1.66006 11.7054
609 1 1 0 1 3.27309 8.83046 13.5689
610 1 1 0 1 0.922182 6.65597 15.9545
611 1 1 0 1 -2.5522 3.70588 12.1866
612 1 1 0 1 -0.855726 3.62485 18.193
613 1 1 0 1 0.00862499 2.92 18.1477
614 1 1 0 1 -2.49999 3.67757 22.4342
615 1 1 0 1 -6.75814 4.23722 23.0116
616 1 1 0 1 -2.04763 4.30681 17.2623
617 1 1 0 1 1.01684 2.94421 2.482
618 1 1 0 1 -3.87382 7.26516 -0.900117
619 1 1 0 1 -2.86102 13.5223 4.56884
620 1 1 0 1 0.436336 5.76909 4.13858
621 1 1 0 1 -2.79253 4.71583 4.65688
622 1 1 0 1 -5.61491 8.81836 5.41187
623 1 1 0 1 -6.57165 5.0669 2.52883
624 1 1 0 1 -1.94066 3.66046 3.29488
625 1 1 0 1 -3.47873 9.41604 9.42791
626 1 1 0 1 -2.22552 6.70459 12.2831
627 1 1 0 1 -5.89798 1.19247 16.5799
628 1 1 0 1 4.08095 3.04434 7.62481
629 1 1 0 1 -2.03209 8.82009 12.379
630 1 1 0 1 2.88303 11.1192 14.5833
631 1 1 0 1 -6.3816 11.0226 11.314
632 1 1 0 1 1.29142 3.63609 15.639
633 1 1 0 1 -9.93934 12.1832 16.6134
634 1 1 0 1 -1.92944 7.17687 18.7483
635 1 1 0 1 -1.14643 7.90313 17.9588
636 1 1 0 1 -5.13506 4.65985 16.9981
637 1 1 0 1 -5.1665 1.86424 24.6236
638 1 1 0 1 -0.0992762 5.74287 21.4428
639 1 1 0 1 -1.49942 3.91489 6.55065
640 1 1 0 1 0.448536 7.77122 0.0451972
641 1 1 0 1 2.01079 5.69078 0.90624
642 1 1 0 1 -3.57431 6.68809 1.9261
643 1 1 0 1 0.267393 11.988 2.09294
644 1 1 0 1 -3.26583 5.21707 5.8176
645 1 1 0 1 -2.21964 6.42924 5.12795
646 1 1 0 1 1.83415 4.68116 8.45982
647 1 1 0 1 -0.628318 9.54842 1.32375
648 1 1 0 1 -6.73509 10.1529 10.0476
649 1 1 0 1 -1.1766 10.683 8.59031
650 1 1 0 1 1.28921 7.37416 11.1417
651 1 1 0 1 -1.82462 9.36785 7.14086
652 1 1 0 1 -2.2892 10.822 15.9405
653 1 1 0 1 -4.53054 13.9015 14.3373
654 1 1 0 1 1.09238 10.5013 19.4704
655 1 1 0 1 -3.50111 8.41931 15.454
656 1 1 0 1 -3.94506 7.57114 18.7471
657 1 1 0 1 0.92837 5.30279 17.5509
658 1 1 0 1 3.09373 8.48056 21.4197
659 1 1 0 1 -3.00968 7.10831 14.8451
660 1 1 0 1 0.384793 10.6101 20.3892
661 1 1 0 1 -3.07193 7.93501 0.300296
662 1 1 0 1 -2.03617 9.82204 -0.538246
663 1 1 0 1 -6.26854 4.95781 1.55294
664 1 1 0 1 -2.7775 8.89692 5.94483
665 1 1 0 1 -6.37991 5.05063 5.60693
666 1 1 0 1 1.05525 8.75136 11.2162
667 1 1 0 1 -4.08172 3.84685 1.64674
668 1 1 0 1 -4.89211 5.1404 6.40812
669 1 1 0 1 1.45295 10.4107 7.58883
670 1 1 0 1 -1.16995 9.5816 9.45915
671 1 1 0 1 2.21063 2.07519 9.85322
672 1 1 0 1 -4.91614 11.0568 14.5618
673 1 1 0 1 -2.32742 12.1828 15.4273
674 1 1 0 1 -0.0606588 7.23048 15.8279
675 1 1 0 1 -0.778691 10.0264 15.3173
676 1 1 0 1 -4.66403 7.3773 15.9905
677 1 1 0 1 0.609601 13.0228 18.2105
678 1 1 0 1 2.32618 5.29591 19.2156
679 1 1 0 1 -0.447704 6.75831 20.5568
680 1 1 0 1 -2.47562 6.01261 13.0159
681 1 1 0 1 -0.26011 10.7367 18.0325
682 1 1 0 1 1.22215 10.2413 21.0226
683 1 1 0 1 -0.23113 10.6264 2.90908
684 1 1 0 1 -2.15736 8.74063 1.95093
685 1 1 0 1 -2.1953 11.564 10.0476
686 1 1 0 1 -0.00733398 7.19915 5.91025
687 1 1 0 1 0.340106 18.3016 3.97
688 1 1 0 1 -2.44064 14.8374 7.97564
689 1 1 0 1 -1.72691 7.2847 6.67788
690 1 1 0 1 -0.414425 6.4472 11.2597
691 1 1 0 1 0.529525 1.77599 8.56774
692 1 1 0 1 1.28143 8.53286 8.89677
693 1 1 0 1 -3.21569 5.77079 17.5325
694 1 1 0 1 -2.97299 12.7333 14.0832
695 1 1 0 1 -0.545638 9.16319 16.1451
696 1 1 0 1 -0.364643 8.54349 17.5395
697 1 1 0 1 -4.21986 8.17466 17.0165
698 1 1 0 1 -8.66097 9.48989 17.8853
699 1 1 0 1 -1.67964 11.4178 20.4529
700 1 1 0 1 -1.3494 13.9331 15.6284
701 1 1 0 1 -3.1451 10.5999 19.5814
702 1 1 0 1 -4.26705 7.11698 17.0099
703 1 1 0 1 -0.818769 10.4557 18.9858
704 1 1 0 1 -2.60784 19.4142 22.6973
705 1 1 0 1 -0.311176 11.9321 3.07397
706 1 1 0 1 -1.60564 9.83175 1.74594
707 1 1 0 1 -1.37409 17.2255 -1.36248
708 1 1 0 1 -1.32422 11.4417 -0.634417
709 1 1 0 1 -2.66652 8.7761 7.07597
710 1 1 0 1 -0.91054 13.249 7.69181
711 1 1 0 1 -1.45677 9.64567 8.22966
712 1 1 0 1 -4.4289 10.3674 8.85247
713 1 1 0 1 -1.31184 14.3049 7.31649
714 1 1 0 1 0.290377 10.9477 4.83879
715 1 1 0 1 -4.56886 9.43453 15.0892
716 1 1 0 1 -2.21473 13.6541 15.2235
717 1 1 0 1 -4.50329 11.937 13.3138
718 1 1 0 1 -0.18462 10.2722 16.1291
719 1 1 0 1 -0.036445 9.7141 17.0466
720 1 1 0 1 0.124704 10.8255 17.0623
721 1 1 0 1 -3.45437 14.4291 16.8214
722 1 1 0 1 1.54455 16.8062 22.0479
723 1 1 0 1 -0.349291 7.28232 17.0719
724 1 1 0 1 -0.492763 15.507 19.2635
725 1 1 0 1 -1.43101 12.4448 23.1018
726 1 1 0 1 -0.781285 13.4361 24.5373
727 1 1 0 1 -0.269833 12.8884 1.6652
728 1 1 0 1 -1.60528 12.1716 -3.34903
729 1 1 0 1 -5.32696 11.3896 -2.0256
730 1 1 0 1 -0.034882 14.4919 1.00477
731 1 1 0 1 0.219133 13.733 2.25479
732 1 1 0 1 1.21966 9.93841 1.83298
733 1 1 0 1 -1.37148 7.82716 5.50217
734 1 1 0 1 -0.299513 11.1643 9.18542
735 1 1 0 1 -0.56234 14.5136 5.5441
736 1 1 0 1 -4.16807 14.0531 4.54677
737 1 1 0 1 -0.870797 9.76505 12.6083
738 1 1 0 1 5.77056 14.7276 8.81171
739 1 1 0 1 -2.60895 9.88565 12.4209
740 1 1 0 1 -3.11853 12.8582 16.3178
741 1 1 0 1 -2.28412 10.0975 14.3552
742 1 1 0 1 -0.664752 10.8138 20.4588
743 1 1 0 1 -0.674663 12.0738 19.9537
744 1 1 0 1 1.13531 12.566 25.1134
745 1 1 0 1 1.08993 11.4322 20.4215
746 1 1 0 1 -2.93595 10.2283 21.8051
747 1 1 0 1 -0.0879047 13.2979 21.7769
748 1 1 0 1 -1.45363 11.4979 22.4928
749 1 1 0 1 -0.374713 14.6959 6.74036
750 1 1 0 1 1.57019 9.31654 4.80437
751 1 1 0 1 -7.20183 12.5695 4.26669
752 1 1 0 1 -2.94302 17.1044 0.270757
753 1 1 0 1 0.619669 13.7892 7.75212
754 1 1 0 1 -0.602995 10.8339 0.743239
755 1 1 0 1 1.0627 14.2694 4.36203
756 1 1 0 1 -7.34737 15.5617 4.94185
757 1 1 0 1 -0.897892 11.8716 11.8385
758 1 1 0 1 -2.54289 11.7786 10.9714
759 1 1 0 1 -4.06838 8.96342 11.7452
760 1 1 0 1 -0.585181 10.4747 13.7164
761 1 1 0 1 -0.958228 13.7078 14.5218
762 1 1 0 1 -3.44241 14.107 14.2221
763 1 1 0 1 -2.86347 15.0313 15.0699
764 1 1 0 1 -3.51211 15.6042 15.6793
765 1 1 0 1 -1.32378 13.8789 20.441
766 1 1 0 1 -0.269603 11.9251 16.1656
767 1 1 0 1 -1.75262 15.2697 22.0685
768 1 1 0 1 -2.84557 13.9643 22.9726
769 1 1 0 1 3.12114 12.7237 22.0248
770 1 1 0 1 -1.1681 16.4169 24.5076
771 1 1 0 1 -0.953896 15.6954 1.23954
772 1 1 0 1 -2.41038 13.5642 7.91648
773 1 1 0 1 -1.63035 10.9725 2.39099
774 1 1 0 1 1.54969 14.6078 9.5845
775 1 1 0 1 -2.30499 14.7965 3.60721
776 1 1 0 1 -0.20755 13.1652 8.34113
777 1 1 0 1 -2.85946 17.4192 7.38161
778 1 1 0 1 -3.61973 11.5739 6.27348
779 1 1 0 1 -0.0526934 14.6889 13.0301
780 1 1 0 1 -2.97122 13.1121 11.8833
781 1 1 0 1 0.634877 11.2655 15.565
782 1 1 0 1 -2.29443 13.6646 14.2033
783 1 1 0 1 -4.77646 16.2087 17.2199
784 1 1 0 1 -1.68532 16.6976 17.0918
785 1 1 0 1 -2.13861 15.5257 15.9042
786 1 1 0 1 -2.06889 13.1198 21.6047
787 1 1 0 1 2.48311 14.0708 17.4444
788 1 1 0 1 -6.77939 17.095 13.524
789 1 1 0 1 -3.50291 16.5064 18.4753
790 1 1 0 1 1.57323 13.6861 24.3938
791 1 1 0 1 1.71294 11.3871 16.9546
792 1 1 0 1 0.0150277 11.4885 21.0497
793 1 1 0 1 -6.07841 13.4475 2.86455
794 1 1 0 1 2.12671 15.7426 3.96877
795 1 1 0 1 3.41205 15.9633 1.65049
796 1 1 0 1 -0.470795 17.7025 5.01512
797 1 1 0 1 -3.17044 18.0156 5.55962
798 1 1 0 1 -5.01971 18.0448 6.53657
799 1 1 0 1 -3.61322 14.7467 6.78084
800 1 1 0 1 0.804654 5.10411 4.88201
801 1 1 0 1 3.36042 12.3558 12.3936
802 1 1 0 1 -3.08401 18.5602 7.70071
803 1 1 0 1 -1.86722 14.7348 15.2022
804 1 1 0 1 -2.68786 15.1884 11.0451
805 1 1 0 1 -0.0436267 15.7989 15.8082
806 1 1 0 1 2.52161 9.2661 7.34493
807 1 1 0 1 -2.86023 14.515 15.8588
808 1 1 0 1 -0.0767169 20.897 13.0153
809 1 1 0 1 -3.47971 16.6601 14.9054