ITEM: TIMESTEP
6000
ITEM: NUMBER OF ATOMS
6752
ITEM: BOX BOUNDS pp pp pp
0.0000000000000000e+00 2.2000000000000000e+01
0.0000000000000000e+00 2.2000000000000000e+01
0.0000000000000000e+00 2.2000000000000000e+01
ITEM: ATOMS id mol type q mass xu yu zu
1 1 1 0 1 -3.0073 -4.07744 -2.84943
2 1 1 0 1 -4.45434 0.108733 -0.872201
3 1 1 0 1 -2.62584 3.06848 3.31269
4 1 1 0 1 -5.18887 -3.83713 7.40378
5 1 1 0 1 0.260692 2.24875 4.26728
6 1 1 0 1 -3.9303 2.65712 7.84185
7 1 1 0 1 -4.51663 6.84251 4.06781
8 1 1 0 1 -1.71425 -1.12364 9.04388
9 1 1 0 1 0.358709 1.16105 6.62044
10 1 1 0 1 -5.70231 4.5242 7.20165
11 1 1 0 1 -3.12006 2.76643 5.96572
12 1 1 0 1 -2.7216 -1.54073 12.1801
13 1 1 0 1 -2.36324 1.60775 14.4025
14 1 1 0 1 -1.89403 7.15091 14.8979
15 1 1 0 1 -6.62519 4.65542 14.8145
16 1 1 0 1 -6.73632 -4.35812 14.7174
17 1 1 0 1 -1.36373 2.85777 14.1073
18 1 1 0 1 -0.686247 3.83351 16.4971
19 1 1 0 1 -1.86083 3.39999 20.9862
20 1 1 0 1 -3.74231 -1.82215 19.0161
21 1 1 0 1 -4.22716 4.41344 18.627
22 1 1 0 1 -6.53197 8.81357 18.7366
23 1 1 0 1 -4.05539 5.256 2.51387
24 1 1 0 1 -6.26043 2.55351 1.53867
25 1 1 0 1 -6.1031 -1.80407 -2.25025
26 1 1 0 1 -0.0549883 -0.591663 4.31289
27 1 1 0 1 -3.14066 0.183207 6.36461
28 1 1 0 1 -4.74093 1.86878 2.64115
29 1 1 0 1 -3.0601 0.202359 8.99988
30 1 1 0 1 -1.10704 -0.722706 6.98776
31 1 1 0 1 -4.36359 6.4401 12.5402
32 1 1 0 1 -6.7967 -3.02913 6.33194
33 1 1 0 1 -5.26328 2.55521 12.4977
34 1 1 0 1 -2.89901 3.54519 11.1849
35 1 1 0 1 -5.09671 0.116953 13.4849
36 1 1 0 1 -2.20116 2.1419 6.30651
37 1 1 0 1 -5.70318 3.5223 12.4949
38 1 1 0 1 -1.61332 0.304135 18.7444
39 1 1 0 1 -1.26284 1.68318 14.5963
40 1 1 0 1 -3.36449 4.93806 21.1896
41 1 1 0 1 -3.66921 2.20259 15.1756
42 1 1 0 1 -7.14603 2.34779 25.2921
43 1 1 0 1 -2.69283 7.18816 22.2582
44 1 1 0 1 -4.16822 6.30229 19.4279
45 1 1 0 1 -6.88754 5.34439 5.83103
46 1 1 0 1 -8.21544 7.25931 9.12345
47 1 1 0 1 -4.15917 0.953511 -1.37853
48 1 1 0 1 -7.37237 3.31677 4.38529
49 1 1 0 1 -0.871335 5.84009 3.86019
50 1 1 0 1 -4.65239 6.99319 -0.0688621
51 1 1 0 1 -2.88275 4.50939 5.6831
52 1 1 0 1 -2.41847 3.77917 14.2892
53 1 1 0 1 -2.86183 1.08036 5.04087
54 1 1 0 1 -4.17511 0.862666 11.1757
55 1 1 0 1 -5.4966 4.02968 10.5204
56 1 1 0 1 -2.94487 0.779489 12.7657
57 1 1 0 1 -5.6495 8.61773 10.9287
58 1 1 0 1 -0.415152 6.39408 16.4508
59 1 1 0 1 -3.04146 1.46022 15.9273
60 1 1 0 1 -0.376806 1.01134 19.2901
61 1 1 0 1 -3.67995 5.5209 16.2942
62 1 1 0 1 -0.677097 1.13172 16.6152
63 1 1 0 1 -3.74795 11.5251 11.4326
64 1 1 0 1 -4.97854 3.97312 17.8214
65 1 1 0 1 -6.36929 3.98319 21.3036
66 1 1 0 1 -6.1975 2.7909 25.6821
67 1 1 0 1 -7.18436 1.38902 2.83475
68 1 1 0 1 -3.91555 4.89997 -4.51285
69 1 1 0 1 -0.025662 4.76776 -0.446837
70 1 1 0 1 -4.0376 4.85952 3.48867
71 1 1 0 1 -0.238431 3.75029 4.17021
72 1 1 0 1 -9.14898 5.20531 1.88513
73 1 1 0 1 0.532707 2.34959 7.6417
74 1 1 0 1 -5.47247 3.44641 5.84992
75 1 1 0 1 -5.16519 3.73521 7.07789
76 1 1 0 1 -2.58493 3.97769 6.73454
77 1 1 0 1 -0.829753 -1.58016 13.4948
78 1 1 0 1 -4.31889 5.73706 14.4813
79 1 1 0 1 -2.53264 2.23634 10.4311
80 1 1 0 1 1.27801 5.44934 13.4223
81 1 1 0 1 -0.718704 4.83896 15.388
82 1 1 0 1 0.629179 3.93711 16.2659
83 1 1 0 1 -2.79048 5.17909 17.6617
84 1 1 0 1 -1.41682 0.426086 14.0286
85 1 1 0 1 -2.13467 4.43271 20.5617
86 1 1 0 1 -1.61052 5.25027 19.1243
87 1 1 0 1 -9.16043 1.2724 26.0783
88 1 1 0 1 -3.76676 7.42615 22.1726
89 1 1 0 1 -3.29457 8.30857 0.0579039
90 1 1 0 1 -1.30085 9.08811 6.73896
91 1 1 0 1 -3.29529 2.24012 3.12255
92 1 1 0 1 -5.02892 7.81999 5.08437
93 1 1 0 1 -5.8986 7.40369 7.04032
94 1 1 0 1 -3.65209 1.05563 4.46493
95 1 1 0 1 -3.91881 6.8241 6.90227
96 1 1 0 1 -2.04802 4.74592 11.247
97 1 1 0 1 -3.89928 7.1317 8.55431
98 1 1 0 1 -1.23881 3.8745 4.87363
99 1 1 0 1 -5.86715 7.8167 11.8772
100 1 1 0 1 -1.54775 3.21995 8.7373
101 1 1 0 1 -6.8521 3.23236 14.693
102 1 1 0 1 -4.91243 5.82417 15.7494
103 1 1 0 1 -6.32385 9.85616 11.1543
104 1 1 0 1 -2.89861 8.4881 16.804
105 1 1 0 1 -3.15809 8.29521 13.1585
106 1 1 0 1 -2.02447 2.74156 17.119
107 1 1 0 1 -4.54123 7.49892 17.8815
108 1 1 0 1 -2.48694 8.13209 21.0552
109 1 1 0 1 -4.71533 5.9236 17.803
110 1 1 0 1 -4.78531 6.33701 22.7953
111 1 1 0 1 -4.08002 1.06691 0.726418
112 1 1 0 1 -1.79799 6.42967 1.88048
113 1 1 0 1 -0.0225897 11.7804 6.22541
114 1 1 0 1 -5.22021 3.67069 2.83814
115 1 1 0 1 -3.46726 7.987 2.03856
116 1 1 0 1 -4.61815 8.42326 2.96556
117 1 1 0 1 -0.0972243 8.15065 8.09018
118 1 1 0 1 -2.39531 3.83368 8.65788
119 1 1 0 1 -2.25098 2.74932 9.44129
120 1 1 0 1 -3.14589 2.37626 12.2681
121 1 1 0 1 -3.03958 4.88809 10.6722
122 1 1 0 1 -5.8502 6.19441 8.46924
123 1 1 0 1 -3.16193 7.45482 14.0118
124 1 1 0 1 -4.56037 10.726 15.2841
125 1 1 0 1 -8.1628 9.48707 8.79811
126 1 1 0 1 -6.094 5.71892 16.8843
127 1 1 0 1 -2.08556 4.42699 17.0244
128 1 1 0 1 -5.62737 12.4502 15.4168
129 1 1 0 1 -0.29859 5.1811 18.8837
130 1 1 0 1 -4.0186 2.60126 19.024
131 1 1 0 1 -3.2097 3.20311 18.5643
132 1 1 0 1 -6.39449 5.24073 23.6744
133 1 1 0 1 -3.80472 6.26994 0.323682
134 1 1 0 1 -7.22742 3.19973 5.77244
135 1 1 0 1 -4.9196 5.73843 4.27931
136 1 1 0 1 -3.09232 10.6134 1.10466
137 1 1 0 1 -6.83439 8.16969 5.38638
138 1 1 0 1 -7.85634 10.992 5.23754
139 1 1 0 1 -0.169121 9.43933 5.86754
140 1 1 0 1 -4.02705 7.30501 2.66369
141 1 1 0 1 5.36534 4.38182 5.49934
142 1 1 0 1 -3.86631 2.94292 10.7311
143 1 1 0 1 -0.940448 3.80477 11.644
144 1 1 0 1 -0.242184 4.21595 8.98524
145 1 1 0 1 -1.85351 9.38245 15.4619
146 1 1 0 1 -3.42573 8.65549 17.8206
147 1 1 0 1 -2.98415 11.4497 13.453
148 1 1 0 1 -3.29689 11.358 14.4775
149 1 1 0 1 -4.08109 11.8086 18.599
150 1 1 0 1 -5.26574 8.03182 18.7677
151 1 1 0 1 -3.21493 5.89197 20.3861
152 1 1 0 1 -5.04797 4.89937 20.2034
153 1 1 0 1 -2.91255 6.54009 19.0098
154 1 1 0 1 -3.02673 6.39311 25.5357
155 1 1 0 1 -3.65078 4.95448 -2.66455
156 1 1 0 1 -4.20702 2.9467 2.57359
157 1 1 0 1 -1.71481 4.75607 3.5779
158 1 1 0 1 -0.446805 8.2142 3.84831
159 1 1 0 1 -3.92349 9.80696 -1.07112
160 1 1 0 1 -7.91302 6.25068 4.67832
161 1 1 0 1 -1.21336 10.0892 4.83263
162 1 1 0 1 -3.56575 7.16365 3.85347
163 1 1 0 1 1.83676 8.25484 8.30029
164 1 1 0 1 -3.82175 7.71331 7.59622
165 1 1 0 1 -2.75098 10.7154 8.0408
166 1 1 0 1 -0.662672 9.5139 15.4107
167 1 1 0 1 -1.77009 10.9833 13.4986
168 1 1 0 1 -1.48897 9.58373 19.4231
169 1 1 0 1 -3.96333 10.8617 16.498
170 1 1 0 1 -0.548832 9.39583 18.3174
171 1 1 0 1 -0.109311 10.0481 17.7092
172 1 1 0 1 -2.62232 7.48894 19.7624
173 1 1 0 1 -1.88459 5.44395 17.5865
174 1 1 0 1 -2.26695 0.249954 21.8162
175 1 1 0 1 -3.45826 8.16734 20.1536
176 1 1 0 1 -1.12698 8.89153 22.2154
177 1 1 0 1 -3.27287 2.59712 1.6747
178 1 1 0 1 0.0197081 11.958 3.0093
179 1 1 0 1 -4.64481 14.4942 6.08509
180 1 1 0 1 -3.71128 5.78464 1.71577
181 1 1 0 1 -3.10011 8.24677 5.01363
182 1 1 0 1 -3.64491 12.0184 5.9658
183 1 1 0 1 -1.20445 8.43824 5.51548
184 1 1 0 1 -2.12165 8.97386 7.59516
185 1 1 0 1 -1.78783 5.40032 9.73141
186 1 1 0 1 -8.5763 11.084 7.85134
187 1 1 0 1 -6.77556 10.6478 10.2521
188 1 1 0 1 -1.37464 2.39533 9.92438
189 1 1 0 1 -0.802636 12.9511 13.6587
190 1 1 0 1 -1.16976 6.91385 16.9478
191 1 1 0 1 -1.94946 12.5224 18.026
192 1 1 0 1 -2.912 10.4706 17.8975
193 1 1 0 1 -2.33754 6.60259 17.9596
194 1 1 0 1 -4.63538 10.5749 19.9773
195 1 1 0 1 -2.52016 9.18616 19.1898
196 1 1 0 1 -2.86914 3.40046 20.7306
197 1 1 0 1 -2.24152 6.33817 19.8122
198 1 1 0 1 -0.243942 7.91016 21.6328
199 1 1 0 1 -2.16583 7.3158 2.70176
200 1 1 0 1 -1.50784 9.51872 2.29399
201 1 1 0 1 -3.25606 9.28394 2.56603
202 1 1 0 1 -4.54141 7.99553 2.02654
203 1 1 0 1 -4.78409 11.2972 3.04795
204 1 1 0 1 -4.11966 12.6575 5.17747
205 1 1 0 1 -3.02978 9.31941 6.39824
206 1 1 0 1 2.59938 7.41942 8.31303
207 1 1 0 1 -4.32218 5.94838 3.31665
208 1 1 0 1 -4.87677 7.9291 12.4759
209 1 1 0 1 -2.64547 7.21956 9.3833
210 1 1 0 1 -0.645335 10.6819 15.6165
211 1 1 0 1 -3.23825 8.24083 11.2283
212 1 1 0 1 -2.91297 10.3235 12.6279
213 1 1 0 1 0.733651 15.0164 17.7587
214 1 1 0 1 -6.11606 13.0662 17.3107
215 1 1 0 1 -4.97638 11.544 17.6258
216 1 1 0 1 -2.82552 9.9718 21.1853
217 1 1 0 1 -4.28866 12.0976 24.6583
218 1 1 0 1 -3.57228 10.1952 20.0084
219 1 1 0 1 0.473271 9.03478 19.7232
220 1 1 0 1 -1.35003 10.6683 22.6196
221 1 1 0 1 0.0253562 10.743 -2.76682
222 1 1 0 1 -3.14346 11.71 3.58993
223 1 1 0 1 -6.17775 11.476 3.6291
224 1 1 0 1 -1.35946 12.5465 2.19886
225 1 1 0 1 -6.80504 15.4218 6.1826
226 1 1 0 1 -7.03131 13.7697 8.98132
227 1 1 0 1 -10.4555 10.8899 5.39763
228 1 1 0 1 -2.04867 11.9729 5.17428
229 1 1 0 1 -3.64423 6.71468 10.6472
230 1 1 0 1 -4.97882 6.96088 7.54445
231 1 1 0 1 -4.39147 8.86649 13.3093
232 1 1 0 1 -0.845154 6.21609 10.0291
233 1 1 0 1 -3.50383 11.433 15.6598
234 1 1 0 1 -8.39772 11.7437 13.472
235 1 1 0 1 -0.165559 13.0004 16.0133
236 1 1 0 1 -9.36707 12.0085 16.7396
237 1 1 0 1 -5.12258 13.919 17.7
238 1 1 0 1 -1.09852 13.6963 12.3751
239 1 1 0 1 -3.29063 13.5989 17.3994
240 1 1 0 1 -4.27651 13.1575 17.3536
241 1 1 0 1 -3.85063 10.8303 20.8891
242 1 1 0 1 -1.68512 7.91377 22.0009
243 1 1 0 1 -2.27457 8.91284 1.82462
244 1 1 0 1 -3.77594 11.407 0.64988
245 1 1 0 1 -6.65482 14.7112 4.41334
246 1 1 0 1 -2.44388 14.2276 3.71496
247 1 1 0 1 -4.40222 12.3371 6.73963
248 1 1 0 1 -2.00989 8.2996 6.7855
249 1 1 0 1 -2.06351 9.27568 5.02614
250 1 1 0 1 -1.1764 8.51077 7.69226
251 1 1 0 1 -2.90747 9.0776 9.50908
252 1 1 0 1 -0.372708 6.4147 8.08131
253 1 1 0 1 -1.25788 3.18736 12.4828
254 1 1 0 1 0.433216 11.1834 12.799
255 1 1 0 1 -5.26028 9.83734 11.4077
256 1 1 0 1 -7.59225 14.7322 15.9999
257 1 1 0 1 -0.908439 14.3747 18.4532
258 1 1 0 1 -1.56289 11.7612 11.9258
259 1 1 0 1 0.333654 14.0685 16.8036
260 1 1 0 1 -0.916909 13.7143 14.1929
261 1 1 0 1 -5.46669 8.89009 18.145
262 1 1 0 1 -3.45612 12.9422 20.6554
263 1 1 0 1 -1.17658 10.4312 17.7691
264 1 1 0 1 -0.811779 15.8371 21.376
265 1 1 0 1 -0.484938 13.7866 0.707691
266 1 1 0 1 2.48919 16.7287 1.85928
267 1 1 0 1 -4.61521 14.1195 4.84425
268 1 1 0 1 -5.89505 14.0978 1.21985
269 1 1 0 1 -2.04421 8.02827 7.93843
270 1 1 0 1 -3.51425 13.3283 3.59913
271 1 1 0 1 -5.77354 10.7416 7.49433
272 1 1 0 1 -4.86761 12.3519 8.28442
273 1 1 0 1 -5.50723 12.5644 7.19822
274 1 1 0 1 -5.81969 7.41359 9.34913
275 1 1 0 1 -6.43076 7.97615 10.0432
276 1 1 0 1 -2.26435 11.1753 10.3523
277 1 1 0 1 -3.4904 11.3303 8.92493
278 1 1 0 1 -1.08521 15.1952 9.35995
279 1 1 0 1 -3.82226 12.4571 11.9463
280 1 1 0 1 -5.39026 15.3612 7.70928
281 1 1 0 1 -2.20137 15.0639 17.7774
282 1 1 0 1 -3.12243 11.621 10.536
283 1 1 0 1 0.787333 16.8118 18.1558
284 1 1 0 1 -3.08582 12.3771 18.4562
285 1 1 0 1 -3.86272 9.933 18.6906
286 1 1 0 1 -5.31439 13.53 21.7403
287 1 1 0 1 -2.56302 15.6048 3.00795
288 1 1 0 1 -0.5374 11.8193 2.23516
289 1 1 0 1 -5.2592 6.58908 4.77939
290 1 1 0 1 -4.7597 10.3753 3.84883
291 1 1 0 1 -6.95643 7.13598 12.3862
292 1 1 0 1 -3.85935 15.2723 9.64589
293 1 1 0 1 0.0782575 11.2444 5.11495
294 1 1 0 1 -3.87574 12.9604 8.82071
295 1 1 0 1 -1.59304 12.1023 8.24527
296 1 1 0 1 -4.51957 11.4761 13.4481
297 1 1 0 1 -3.38527 15.4876 8.64822
298 1 1 0 1 -5.41114 11.4257 14.8246
299 1 1 0 1 -1.04308 16.3198 14.417
300 1 1 0 1 -0.0476639 12.8047 18.1102
301 1 1 0 1 -5.18412 15.7422 13.3068
302 1 1 0 1 -1.98507 14.997 13.2546
303 1 1 0 1 -2.39782 13.2859 15.8467
304 1 1 0 1 -0.411897 9.91986 9.45341
305 1 1 0 1 -1.22724 13.525 16.2199
306 1 1 0 1 -1.02692 17.6372 19.6358
307 1 1 0 1 -2.23215 12.9719 16.8479
308 1 1 0 1 -0.443129 16.9066 26.6678
309 1 1 0 1 -4.14864 12.35 1.0927
310 1 1 0 1 -5.39276 13.142 4.27768
311 1 1 0 1 -7.35981 15.2606 2.47561
312 1 1 0 1 -9.09826 11.8024 6.74362
313 1 1 0 1 -3.46103 15.0686 6.79301
314 1 1 0 1 -2.00496 10.9189 4.8002
315 1 1 0 1 -1.61754 9.96183 8.53126
316 1 1 0 1 -2.91289 12.5698 4.34714
317 1 1 0 1 -4.99371 13.4268 6.5281
318 1 1 0 1 -2.79112 16.6086 8.58651
319 1 1 0 1 -5.51569 14.7061 10.6015
320 1 1 0 1 0.0277687 18.9646 14.3249
321 1 1 0 1 -2.07601 13.3202 13.6856
322 1 1 0 1 -0.24546 6.84261 11.9237
323 1 1 0 1 -3.87871 10.5341 8.14685
324 1 1 0 1 -4.49329 11.4501 8.52972
325 1 1 0 1 -2.82952 16.072 13.3434
326 1 1 0 1 -5.95779 16.1497 19.9994
327 1 1 0 1 -3.15954 15.0695 18.5095
328 1 1 0 1 -3.37425 14.1354 18.9718
329 1 1 0 1 -0.8488 12.6705 19.8286
330 1 1 0 1 -1.36786 13.7085 24.3963
331 1 1 0 1 -2.78784 16.7798 1.23618
332 1 1 0 1 0.0162949 17.0369 2.5121
333 1 1 0 1 -1.35804 16.1378 1.55148
334 1 1 0 1 -3.43596 14.5242 4.86555
335 1 1 0 1 -1.06241 15.5456 6.51865
336 1 1 0 1 -9.81058 14.4108 6.27592
337 1 1 0 1 -2.1024 8.82342 8.92596
338 1 1 0 1 -4.28661 13.3357 7.21051
339 1 1 0 1 -4.27851 13.9688 8.1895
340 1 1 0 1 0.701269 13.8864 7.10796
341 1 1 0 1 -2.76467 9.84477 8.76258
342 1 1 0 1 -3.16113 17.1201 13.3516
343 1 1 0 1 -5.206 12.859 9.31092
344 1 1 0 1 -4.949 14.2043 14.1957
345 1 1 0 1 -3.32579 13.7538 15.3767
346 1 1 0 1 4.97259 17.7964 17.6636
347 1 1 0 1 -3.91652 14.5375 17.9696
348 1 1 0 1 -2.83244 14.3593 14.0633
349 1 1 0 1 -1.05271 17.6298 15.8867
350 1 1 0 1 -1.16325 13.1493 18.313
351 1 1 0 1 -6.76489 14.7242 16.8996
352 1 1 0 1 -1.22393 16.8777 22.5032
353 1 1 0 1 -3.0408 15.3319 5.57804
354 1 1 0 1 0.271016 18.1681 3.01173
355 1 1 0 1 -4.5298 13.573 9.85669
356 1 1 0 1 -6.78393 10.8251 4.74668
357 1 1 0 1 -1.04707 16.5142 3.02555
358 1 1 0 1 -2.65824 13.1747 5.22654
359 1 1 0 1 -4.55832 15.2929 6.90514
360 1 1 0 1 -1.84325 14.1085 9.26861
361 1 1 0 1 -5.69621 16.1996 10.3046
362 1 1 0 1 -1.06515 15.432 11.0449
363 1 1 0 1 -0.917021 16.5056 9.81694
364 1 1 0 1 -1.60809 17.2304 11.6701
365 1 1 0 1 -4.03136 8.82852 5.10965
366 1 1 0 1 -4.43632 14.7588 13.3323
367 1 1 0 1 -1.93591 13.8789 10.7002
368 1 1 0 1 -1.60878 16.137 16.3095
369 1 1 0 1 -8.75655 14.3926 15.2256
370 1 1 0 1 -4.50557 6.204 10.6439
371 1 1 0 1 -2.36659 17.9377 20.8469
372 1 1 0 1 -3.02718 14.0594 16.3869
373 1 1 0 1 -3.93662 13.9627 21.17
374 1 1 0 1 -1.32447 12.9074 25.2843
375 1 1 0 1 -6.81061 10.3876 0.776049
376 1 1 0 1 -4.63209 8.41905 6.02287
377 1 1 0 1 -5.81443 17.8586 5.33335
378 1 1 0 1 -3.24128 18.2731 3.17437
379 1 1 0 1 -4.67001 14.3465 2.25508
380 1 1 0 1 -5.76444 15.1628 3.85115
381 1 1 0 1 -3.88491 16.4936 4.40897
382 1 1 0 1 -8.57351 17.4537 11.5799
383 1 1 0 1 -2.24777 18.6341 8.82279
384 1 1 0 1 -2.52737 16.8664 11.1294
385 1 1 0 1 -2.33123 19.8751 11.3749
386 1 1 0 1 -2.17309 12.1909 9.83895
387 1 1 0 1 -4.99207 16.5558 13.9773
388 1 1 0 1 -3.373 18.0054 16.3746
389 1 1 0 1 -3.32793 14.5017 13.0645
390 1 1 0 1 -0.681172 15.4371 15.6362
391 1 1 0 1 -4.42456 13.5334 14.9064
392 1 1 0 1 -4.76023 12.8345 11.7508
393 1 1 0 1 -2.28649 10.2692 16.2657
394 1 1 0 1 -7.23115 15.3922 19.2129
395 1 1 0 1 -8.09728 13.06 14.2526
396 1 1 0 1 -3.91494 13.9585 22.3597
397 1 1 0 1 -1.01066 17.2899 -0.536142
398 1 1 0 1 -1.09828 20.2851 -0.444746
399 1 1 0 1 -4.12563 13.8918 1.41482
400 1 1 0 1 -5.17806 12.3789 3.43652
401 1 1 0 1 0.0879554 10.5651 7.25097
402 1 1 0 1 -4.04023 16.9228 5.80059
403 1 1 0 1 -1.18734 13.3044 8.3862
404 1 1 0 1 -4.5907 16.269 6.49738
405 1 1 0 1 -6.64172 17.0219 8.54143
406 1 1 0 1 -3.33024 18.1357 10.3772
407 1 1 0 1 -2.79725 15.6918 7.59708
408 1 1 0 1 -6.53115 15.6642 10.4412
409 1 1 0 1 -4.61785 13.0843 13.854
410 1 1 0 1 -4.02655 14.9876 14.766
411 1 1 0 1 -1.10962 17.2 13.5473
412 1 1 0 1 -7.96323 15.4982 11.7987
413 1 1 0 1 -3.76844 15.9269 19.1833
414 1 1 0 1 -3.20856 15.2019 17.54
415 1 1 0 1 -0.986757 17.0329 16.9453
416 1 1 0 1 -2.43556 12.1878 20.6641
417 1 1 0 1 3.35384 20.0577 22.9606
418 1 1 0 1 -1.88305 14.4577 23.4939
419 1 1 0 1 -5.07227 20.3153 6.13682
420 1 1 0 1 -1.18483 24.5882 6.60285
421 1 1 0 1 -3.9741 15.4771 5.45569
422 1 1 0 1 -5.87115 13.9722 5.88237
423 1 1 0 1 -0.415301 19.5646 3.54704
424 1 1 0 1 -3.53767 17.8132 6.65095
425 1 1 0 1 -4.54457 18.0384 5.96283
426 1 1 0 1 -3.68963 18.9834 6.0444
427 1 1 0 1 -1.62195 19.9177 7.33933
428 1 1 0 1 -0.48393 21.9479 7.97937
429 1 1 0 1 -3.49237 24.3542 9.97241
430 1 1 0 1 1.06689 16.7651 11.6305
431 1 1 0 1 -4.72833 15.4416 14.1413
432 1 1 0 1 -0.880072 19.1781 16.23
433 1 1 0 1 -2.90829 15.5228 12.352
434 1 1 0 1 -6.14578 18.1246 12.5949
435 1 1 0 1 -4.26434 14.4982 16.8859
436 1 1 0 1 -5.67728 19.5891 13.6289
437 1 1 0 1 -2.02581 20.1033 15.8226
438 1 1 0 1 -1.9535 17.7487 16.7372
439 1 1 0 1 -5.07328 18.3971 18.3551
440 1 1 0 1 -3.01195 15.338 23.0196
441 1 1 0 1 -5.40945 16.2987 1.14582
442 1 1 0 1 -2.55697 18.849 5.37607
443 1 1 0 1 -4.79358 21.6847 0.894114
444 1 1 0 1 0.822135 24.2124 1.86737
445 1 1 0 1 -4.25358 17.4171 3.68029
446 1 1 0 1 -2.13898 10.878 11.4494
447 1 1 0 1 -5.05877 20.0792 8.08858
448 1 1 0 1 -6.0468 14.0123 8.82498
449 1 1 0 1 -3.33826 19.3649 10.5154
450 1 1 0 1 -2.78253 16.7276 12.328
451 1 1 0 1 -4.88434 18.6161 8.92596
452 1 1 0 1 -4.41148 17.6026 16.0477
453 1 1 0 1 -5.12402 17.8707 13.1066
454 1 1 0 1 -3.26817 21.9061 14.5622
455 1 1 0 1 -7.82524 8.64834 13.518
456 1 1 0 1 -8.02604 13.3884 11.4475
457 1 1 0 1 -5.25068 21.8887 14.4777
458 1 1 0 1 -7.71974 17.2377 18.1516
459 1 1 0 1 -3.75592 17.0638 16.7523
460 1 1 0 1 -3.34643 13.0778 19.5504
461 1 1 0 1 -3.17622 20.1293 13.6925
462 1 1 0 1 -0.443298 21.1574 19.377
463 1 1 0 1 -1.76176 23.3554 -4.63106
464 1 1 0 1 -1.66025 18.9179 -0.571579
465 1 1 0 1 1.35602 23.1419 4.46789
466 1 1 0 1 -0.134995 22.7008 4.57562
467 1 1 0 1 -5.54652 16.803 6.98682
468 1 1 0 1 -3.68583 20.9428 6.27722
469 1 1 0 1 -5.54845 17.4086 8.37426
470 1 1 0 1 -4.33123 22.3325 4.05596
471 1 1 0 1 -5.30642 19.0265 8.10496
472 1 1 0 1 -3.01716 25.0691 4.84518
473 1 1 0 1 -4.40972 21.2827 12.8689
474 1 1 0 1 -5.13511 18.7345 12.4661
475 1 1 0 1 -0.416098 21.332 13.3026
476 1 1 0 1 -1.58473 21.2177 15.3164
477 1 1 0 1 -2.46353 20.2144 14.7254
478 1 1 0 1 -2.80704 19.097 16.4827
479 1 1 0 1 0.280584 22.9761 15.7153
480 1 1 0 1 -2.18391 23.4141 15.3755
481 1 1 0 1 -1.7367 19.7741 18.4057
482 1 1 0 1 -1.04423 24.6118 16.4781
483 1 1 0 1 0.354468 19.9181 20.1973
484 1 1 0 1 -0.7724 20.5352 24.0885
485 1 1 0 1 -5.25471 -2.75404 3.47199
486 1 1 0 1 -1.06277 0.43874 -1.81328
487 1 1 0 1 -2.29787 1.80312 2.7548
488 1 1 0 1 -0.370211 0.0605981 2.38834
489 1 1 0 1 -2.0825 4.93731 7.14355
490 1 1 0 1 -1.54773 1.84115 3.53315
491 1 1 0 1 -1.25804 4.26284 10.5514
492 1 1 0 1 -2.33368 -1.82152 9.72349
493 1 1 0 1 -1.95895 -0.256366 9.60448
494 1 1 0 1 -3.3402 -0.402313 3.60704
495 1 1 0 1 -4.85075 -0.0366934 11.973
496 1 1 0 1 0.411625 0.545739 12.6303
497 1 1 0 1 -0.689257 0.0377594 10.0004
498 1 1 0 1 -4.16404 0.0729625 16.6819
499 1 1 0 1 -3.29818 1.08401 15.013
500 1 1 0 1 -3.15096 -3.25879 15.5437
501 1 1 0 1 1.80819 -2.04483 11.42
502 1 1 0 1 -0.958198 -2.31942 17.0777
503 1 1 0 1 -0.993157 1.99054 18.9072
504 1 1 0 1 -4.08546 -2.57459 18.064
505 1 1 0 1 -3.67717 -0.730187 17.061
506 1 1 0 1 -6.24354 1.15022 22.0121
507 1 1 0 1 -3.07376 1.97732 -0.912647
508 1 1 0 1 -1.63925 -0.872315 -0.9599
509 1 1 0 1 -2.54212 2.73642 -0.434222
510 1 1 0 1 -1.28369 0.454079 0.933985
511 1 1 0 1 -0.41934 4.62007 4.98955
512 1 1 0 1 -0.119826 6.63694 6.83919
513 1 1 0 1 -1.71439 1.37664 5.24004
514 1 1 0 1 -2.07924 0.855114 4.10472
515 1 1 0 1 0.259658 3.86985 5.17274
516 1 1 0 1 -3.27017 -0.399476 8.10462
517 1 1 0 1 -0.384789 3.07671 8.8777
518 1 1 0 1 0.363207 2.27161 10.5207
519 1 1 0 1 -3.27083 0.0185324 15.897
520 1 1 0 1 -1.80857 -1.22226 10.7721
521 1 1 0 1 1.87277 0.676195 12.4073
522 1 1 0 1 -0.828806 2.50696 15.1722
523 1 1 0 1 -0.821567 1.73109 15.8215
524 1 1 0 1 -1.71365 0.228385 17.3429
525 1 1 0 1 -5.27867 0.784486 20.4485
526 1 1 0 1 -0.0248668 -2.33359 18.6886
527 1 1 0 1 1.10173 2.12607 21.1438
528 1 1 0 1 -1.00883 3.24059 24.409
529 1 1 0 1 0.352618 6.51897 2.26832
530 1 1 0 1 -5.12062 -0.715871 -4.54007
531 1 1 0 1 -2.36439 4.14165 -0.209505
532 1 1 0 1 -3.7447 -2.20339 -1.88299
533 1 1 0 1 0.416498 3.43745 1.63959
534 1 1 0 1 -0.317878 4.06528 3.13372
535 1 1 0 1 -0.41726 3.25554 5.9326
536 1 1 0 1 -3.19504 5.25766 4.63181
537 1 1 0 1 -2.87678 1.82181 9.43531
538 1 1 0 1 -3.31502 0.570389 7.43559
539 1 1 0 1 -5.28038 4.98943 13.4052
540 1 1 0 1 0.409151 1.99898 12.407
541 1 1 0 1 -4.07569 7.03421 14.4448
542 1 1 0 1 -1.26035 3.58133 15.0179
543 1 1 0 1 -4.52309 5.64969 16.8181
544 1 1 0 1 2.40184 3.83818 16.6581
545 1 1 0 1 -0.181306 3.74918 15.2875
546 1 1 0 1 -0.388144 0.219239 14.5249
547 1 1 0 1 -5.10941 1.12543 18.3824
548 1 1 0 1 -3.49163 3.87525 19.3724
549 1 1 0 1 0.0019868 4.26376 22.5963
550 1 1 0 1 -1.45171 1.57777 22.1861
551 1 1 0 1 -2.76222 5.38757 1.37769
552 1 1 0 1 -4.0299 6.11245 -1.0516
553 1 1 0 1 -1.44903 4.68179 1.47573
554 1 1 0 1 -0.837753 4.79286 0.630763
555 1 1 0 1 -4.27962 3.23516 5.77491
556 1 1 0 1 -3.30393 2.37365 4.24069
557 1 1 0 1 -0.049732 5.75004 7.30471
558 1 1 0 1 -3.00844 3.36481 10.1292
559 1 1 0 1 -1.7645 3.36322 10.1534
560 1 1 0 1 -3.78128 0.855956 5.73074
561 1 1 0 1 -1.37847 0.857157 15.1766
562 1 1 0 1 -1.19737 4.93843 11.9953
563 1 1 0 1 -1.37604 4.57643 13.4441
564 1 1 0 1 -3.06296 1.90096 13.2226
565 1 1 0 1 0.141897 5.62005 15.8326
566 1 1 0 1 1.96118 2.26187 15.207
567 1 1 0 1 2.00362 6.43807 17.4376
568 1 1 0 1 -0.54368 4.24558 14.4999
569 1 1 0 1 -0.402112 2.59621 17.8936
570 1 1 0 1 -1.90511 0.78176 20.8454
571 1 1 0 1 2.23608 3.1874 20.8254
572 1 1 0 1 1.30088 3.57116 21.1104
573 1 1 0 1 0.969695 4.59712 -0.497311
574 1 1 0 1 -2.5615 3.96451 4.35342
575 1 1 0 1 -3.50603 1.61013 -0.00917409
576 1 1 0 1 -2.81814 4.19709 2.46864
577 1 1 0 1 -1.41582 2.6489 5.40353
578 1 1 0 1 -4.24755 5.97819 5.41023
579 1 1 0 1 -0.955389 7.54283 7.66946
580 1 1 0 1 -2.7902 4.64988 8.08048
581 1 1 0 1 -4.48858 8.72659 10.2032
582 1 1 0 1 1.38598 5.37129 8.70852
583 1 1 0 1 -2.27184 4.32078 9.93088
584 1 1 0 1 -3.11745 7.00927 12.8779
585 1 1 0 1 -2.5228 6.19134 16.4616
586 1 1 0 1 -1.48638 12.5132 16.1038
587 1 1 0 1 -3.66612 9.56463 12.152
588 1 1 0 1 -6.11678 5.78762 15.4326
589 1 1 0 1 -4.00113 4.22259 22.1766
590 1 1 0 1 0.845333 3.74146 22.5539
591 1 1 0 1 -3.59008 6.70093 16.3942
592 1 1 0 1 -2.59636 2.46397 22.5231
593 1 1 0 1 -1.1903 3.25248 17.5406
594 1 1 0 1 -4.08352 1.9742 20.7735
595 1 1 0 1 -1.07524 2.75746 -1.36738
596 1 1 0 1 -5.06603 7.51136 3.42808
597 1 1 0 1 -4.32638 0.560978 2.94606
598 1 1 0 1 2.86983 3.10437 2.5518
599 1 1 0 1 2.52815 3.29635 4.17301
600 1 1 0 1 -0.0937813 7.76366 1.81899
601 1 1 0 1 -5.14169 5.05098 6.5125
602 1 1 0 1 2.89106 5.13103 5.64562
603 1 1 0 1 2.04674 2.04186 10.6548
604 1 1 0 1 2.75237 6.05274 10.2295
605 1 1 0 1 2.12864 5.63729 11.938
606 1 1 0 1 -2.07584 0.368901 11.7781
607 1 1 0 1 -1.09175 9.81823 10.25
608 1 1 0 1 -1.95014 3.6948 11.3541
609 1 1 0 1 1.35 7.25608 12.8077
610 1 1 0 1 0.113719 6.45432 15.2176
611 1 1 0 1 -2.21074 1.19056 13.4628
612 1 1 0 1 0.418238 6.20999 19.2203
613 1 1 0 1 0.115928 4.2349 19.2501
614 1 1 0 1 -2.28933 3.87275 19.2659
615 1 1 0 1 -3.48528 4.47952 20.225
616 1 1 0 1 -0.926834 6.31946 18.8969
617 1 1 0 1 2.60249 4.60312 1.33583
618 1 1 0 1 -5.99995 4.45288 -1.69423
619 1 1 0 1 -3.34496 10.0757 1.90378
620 1 1 0 1 -2.47607 5.55549 5.29012
621 1 1 0 1 -2.70943 1.5467 3.83744
622 1 1 0 1 -3.67332 6.73813 5.87529
623 1 1 0 1 -6.05308 4.00677 3.62951
624 1 1 0 1 1.14555 4.38396 4.45233
625 1 1 0 1 -2.89729 9.07877 10.7045
626 1 1 0 1 -3.05467 5.82238 11.2124
627 1 1 0 1 -5.33661 4.82294 17.1108
628 1 1 0 1 1.79343 5.3049 6.33912
629 1 1 0 1 -3.81212 7.24389 11.5876
630 1 1 0 1 0.942953 9.11042 14.9881
631 1 1 0 1 -7.35414 11.7993 10.6802
632 1 1 0 1 0.979992 5.09491 15.6202
633 1 1 0 1 -6.74126 11.5703 16.1193
634 1 1 0 1 -1.74094 5.41083 20.3305
635 1 1 0 1 -4.05701 6.46167 18.3861
636 1 1 0 1 -2.77244 3.83337 16.3943
637 1 1 0 1 -5.63412 4.48207 24.1057
638 1 1 0 1 -0.983416 6.54954 21.1454
639 1 1 0 1 -1.37908 3.15221 3.56054
640 1 1 0 1 1.30256 7.01303 -1.33657
641 1 1 0 1 -0.875303 5.89987 2.48999
642 1 1 0 1 -3.79964 5.00958 0.912705
643 1 1 0 1 -1.34404 8.42025 1.90428
644 1 1 0 1 -2.10259 7.94097 5.67399
645 1 1 0 1 -1.01661 6.4171 6.47288
646 1 1 0 1 0.668144 6.40262 8.79661
647 1 1 0 1 -2.31327 9.06996 2.93152
648 1 1 0 1 -3.00989 10.3974 9.57115
649 1 1 0 1 -1.09441 8.98053 8.64618
650 1 1 0 1 4.17671 6.8545 11.8398
651 1 1 0 1 -2.5872 7.62259 10.354
652 1 1 0 1 -1.08755 8.95677 16.3728
653 1 1 0 1 -3.02964 15.2001 10.4252
654 1 1 0 1 0.0690474 7.99859 17.9707
655 1 1 0 1 -2.83239 8.50811 15.7585
656 1 1 0 1 -3.3553 6.78184 19.9303
657 1 1 0 1 2.4594 5.78994 16.5779
658 1 1 0 1 0.587954 7.30602 22.2906
659 1 1 0 1 -0.659503 5.31109 17.7471
660 1 1 0 1 -1.89409 8.95014 20.9413
661 1 1 0 1 -4.60579 6.55476 1.81887
662 1 1 0 1 -0.283295 8.52873 -1.43868
663 1 1 0 1 -3.53995 3.61674 1.15302
664 1 1 0 1 -2.99973 9.35893 4.30087
665 1 1 0 1 -3.80304 6.21372 4.38692
666 1 1 0 1 -2.93746 4.68591 9.16046
667 1 1 0 1 -4.9942 4.76681 2.96887
668 1 1 0 1 -2.73717 6.12513 6.4216
669 1 1 0 1 2.99376 9.78091 6.97245
670 1 1 0 1 0.26605 9.26991 9.2789
671 1 1 0 1 0.84068 4.37919 8.71572
672 1 1 0 1 -1.7608 11.4254 16.1605
673 1 1 0 1 -3.80038 10.0287 13.1355
674 1 1 0 1 1.10464 9.6741 16.6504
675 1 1 0 1 -1.01321 10.9506 16.8004
676 1 1 0 1 -4.82384 9.22201 16.3411
677 1 1 0 1 -1.56565 11.5528 17.7679
678 1 1 0 1 1.23742 5.73168 17.8093
679 1 1 0 1 -1.46028 6.94575 18.2419
680 1 1 0 1 -2.28692 7.70035 17.525
681 1 1 0 1 1.99047 10.4117 19.9896
682 1 1 0 1 0.0857993 6.21192 20.4886
683 1 1 0 1 -2.28053 9.94257 1.61967
684 1 1 0 1 -1.70037 8.42246 4.04918
685 1 1 0 1 -2.63198 11.5193 6.2072
686 1 1 0 1 -0.388448 8.66063 4.81232
687 1 1 0 1 -2.54651 13.2012 3.23131
688 1 1 0 1 -3.02925 12.3447 7.07311
689 1 1 0 1 -1.32159 9.91239 5.975
690 1 1 0 1 -0.580706 6.96473 9.26777
691 1 1 0 1 1.56904 7.24865 8.7196
692 1 1 0 1 0.241097 9.38596 10.5383
693 1 1 0 1 -3.40299 7.35461 18.2945
694 1 1 0 1 -2.61023 12.043 16.0041
695 1 1 0 1 0.63434 8.02535 12.7487
696 1 1 0 1 1.73928 10.8009 17.1978
697 1 1 0 1 -0.994362 9.50336 17.2734
698 1 1 0 1 -5.61385 9.79621 17.2997
699 1 1 0 1 -2.67511 9.74764 20.1539
700 1 1 0 1 -2.43418 15.4354 16.6875
701 1 1 0 1 -4.47146 10.9319 18.7207
702 1 1 0 1 -2.16735 7.9056 18.5168
703 1 1 0 1 0.905888 9.95839 17.8204
704 1 1 0 1 -1.72955 15.1644 21.4883
705 1 1 0 1 1.27464 9.17983 0.738164
706 1 1 0 1 -2.87623 7.50804 1.2872
707 1 1 0 1 -1.34277 13.9943 -0.435651
708 1 1 0 1 0.771958 10.6319 0.59691
709 1 1 0 1 -4.48238 9.77187 5.11447
710 1 1 0 1 -1.97817 11.8294 7.21601
711 1 1 0 1 -0.620448 10.1374 6.69374
712 1 1 0 1 -3.89675 11.887 7.72894
713 1 1 0 1 1.05934 10.7529 6.65463
714 1 1 0 1 0.535634 11.9358 8.75298
715 1 1 0 1 -3.61094 8.33214 12.2418
716 1 1 0 1 -2.87231 14.6801 15.1591
717 1 1 0 1 -1.63497 12.6826 14.3631
718 1 1 0 1 -0.295951 11.5647 14.8209
719 1 1 0 1 0.956265 10.7964 18.7016
720 1 1 0 1 -0.526238 11.8319 17.5359
721 1 1 0 1 -2.11908 11.5213 18.8254
722 1 1 0 1 1.74665 13.5024 20.9649
723 1 1 0 1 -0.646003 8.33739 18.8408
724 1 1 0 1 -0.569035 15.4093 18.2217
725 1 1 0 1 -1.91535 11.5559 19.9895
726 1 1 0 1 -1.50452 11.9303 21.2515
727 1 1 0 1 -0.58729 12.2772 -1.21751
728 1 1 0 1 -1.04524 9.4732 -0.677845
729 1 1 0 1 -6.259 11.3306 -0.890231
730 1 1 0 1 -1.12467 12.3467 0.432706
731 1 1 0 1 -1.01395 9.70753 1.12916
732 1 1 0 1 -2.00504 9.68633 0.581181
733 1 1 0 1 -1.96414 9.53366 3.84584
734 1 1 0 1 -0.987413 11.2227 8.38778
735 1 1 0 1 -1.36131 12.5382 4.39374
736 1 1 0 1 -3.65705 13.0855 6.2044
737 1 1 0 1 -0.783843 10.4007 12.9547
738 1 1 0 1 4.13551 14.0709 9.38
739 1 1 0 1 -2.35137 7.61656 13.4126
740 1 1 0 1 -3.22304 12.4823 17.2921
741 1 1 0 1 -2.82934 9.82724 13.7876
742 1 1 0 1 -2.24106 10.5615 19.4005
743 1 1 0 1 -0.215428 11.3941 18.4366
744 1 1 0 1 -2.20144 10.7467 22.0319
745 1 1 0 1 2.67231 11.5816 20.1171
746 1 1 0 1 -3.05947 11.1496 21.7408
747 1 1 0 1 -0.73149 11.2336 19.9652
748 1 1 0 1 -1.70003 12.6079 19.1366
749 1 1 0 1 -2.49437 12.7264 6.17825
750 1 1 0 1 0.709474 9.70987 2.34018
751 1 1 0 1 -2.94713 11.3999 4.55293
752 1 1 0 1 -3.40968 14.5211 3.02575
753 1 1 0 1 0.508837 13.6088 5.5137
754 1 1 0 1 -2.08563 11.835 0.218496
755 1 1 0 1 0.301746 11.8014 7.69997
756 1 1 0 1 -2.85596 14.1979 5.68924
757 1 1 0 1 -1.72272 10.1224 12.5917
758 1 1 0 1 -0.349626 9.66615 8.46117
759 1 1 0 1 -2.98938 10.715 10.969
760 1 1 0 1 -1.06502 10.6033 11.5341
761 1 1 0 1 0.325763 12.8329 14.0371
762 1 1 0 1 0.168949 14.5393 14.8005
763 1 1 0 1 -1.56738 13.8438 14.8897
764 1 1 0 1 -0.838408 14.7358 14.7243
765 1 1 0 1 -2.06301 13.2543 20.4265
766 1 1 0 1 0.0786713 12.6649 16.9294
767 1 1 0 1 -1.8184 14.7278 18.7261
768 1 1 0 1 0.136758 12.3702 20.029
769 1 1 0 1 1.5373 11.4571 21.0675
770 1 1 0 1 0.548091 14.0383 22.8146
771 1 1 0 1 -0.463908 15.0993 1.0016
772 1 1 0 1 -1.47574 13.0437 5.83924
773 1 1 0 1 -2.33199 12.3022 2.59185
774 1 1 0 1 -1.28815 14.4638 7.80208
775 1 1 0 1 -3.51133 16.9593 2.04085
776 1 1 0 1 -2.69431 11.8642 7.95932
777 1 1 0 1 -2.93867 16.8335 6.26811
778 1 1 0 1 -5.00991 11.4266 7.41684
779 1 1 0 1 -1.07501 13.28 11.0854
780 1 1 0 1 0.122853 13.0014 11.3318
781 1 1 0 1 -0.725987 10.9962 13.8832
782 1 1 0 1 -0.323799 13.4608 15.0378
783 1 1 0 1 -3.39192 16.9763 15.68
784 1 1 0 1 -0.7833 14.8327 13.5898
785 1 1 0 1 -2.08234 15.0121 15.8629
786 1 1 0 1 -1.36895 16.1551 17.4143
787 1 1 0 1 1.05126 15.0223 16.6218
788 1 1 0 1 -2.4169 15.3725 14.4638
789 1 1 0 1 -0.352377 14.4163 15.8548
790 1 1 0 1 2.4508 11.4822 23.2626
791 1 1 0 1 -0.775004 10.3798 18.7441
792 1 1 0 1 -0.547286 11.6786 21.6102
793 1 1 0 1 -6.61854 15.3386 0.332336
794 1 1 0 1 1.19177 14.0499 2.19836
795 1 1 0 1 1.86054 17.3997 4.44029
796 1 1 0 1 0.365768 15.0201 2.45724
797 1 1 0 1 -3.11128 15.4803 4.34999
798 1 1 0 1 -2.85991 16.4767 5.15649
799 1 1 0 1 -3.01343 13.7342 7.1128
800 1 1 0 1 -1.72089 6.77715 7.0826
801 1 1 0 1 0.305348 11.1075 11.5513
802 1 1 0 1 -2.87856 17.1792 7.38959
803 1 1 0 1 0.0877922 12.9964 12.955
804 1 1 0 1 -2.89089 13.8484 11.2113
805 1 1 0 1 -0.123908 14.0029 12.9681
806 1 1 0 1 -0.125513 10.6805 10.3145
807 1 1 0 1 -1.62353 15.7292 15.0861
808 1 1 0 1 0.682878 18.2435 13.1399