ITEM: TIMESTEP
19000
ITEM: NUMBER OF ATOMS
6752
ITEM: BOX BOUNDS pp pp pp
0.0000000000000000e+00 2.2000000000000000e+01
0.0000000000000000e+00 2.2000000000000000e+01
0.0000000000000000e+00 2.2000000000000000e+01
ITEM: ATOMS id mol type q mass xu yu zu
1 1 1 0 1 -2.70165 -8.19152 3.38062
2 1 1 0 1 -0.649141 3.65548 -0.0580764
3 1 1 0 1 -3.96132 0.184941 3.64962
4 1 1 0 1 -8.78434 -3.14288 2.10412
5 1 1 0 1 2.25416 5.00928 2.61888
6 1 1 0 1 -10.1379 -1.32097 7.4536
7 1 1 0 1 3.82637 6.30905 5.68963
8 1 1 0 1 2.99186 -4.31922 11.9462
9 1 1 0 1 0.0485596 2.23584 10.9039
10 1 1 0 1 -8.60224 -2.70963 10.1046
11 1 1 0 1 -0.592945 2.97757 6.51688
12 1 1 0 1 -8.39784 -4.99142 16.9851
13 1 1 0 1 1.83565 4.20796 13.6243
14 1 1 0 1 -1.35125 13.1458 13.6152
15 1 1 0 1 -6.60545 -0.578129 10.6069
16 1 1 0 1 -7.54563 -6.28298 13.3493
17 1 1 0 1 -1.04127 -1.49412 14.7706
18 1 1 0 1 -4.4301 -3.65343 22.0147
19 1 1 0 1 -1.82622 6.3338 16.5174
20 1 1 0 1 -1.89862 0.664006 17.8146
21 1 1 0 1 -8.19373 6.65627 15.5487
22 1 1 0 1 -3.37343 9.42275 20.4539
23 1 1 0 1 -7.48196 -0.0575415 3.10009
24 1 1 0 1 -1.10111 4.1476 -1.10238
25 1 1 0 1 -1.14904 -0.151209 -7.6487
26 1 1 0 1 0.123762 -2.64215 5.7597
27 1 1 0 1 -8.76651 -1.05151 11.0062
28 1 1 0 1 -2.16383 4.68636 0.972798
29 1 1 0 1 -2.90593 -2.55905 14.1814
30 1 1 0 1 -3.55645 -2.05585 16.8768
31 1 1 0 1 -4.27736 7.18774 12.5299
32 1 1 0 1 -4.54841 -3.99268 4.14237
33 1 1 0 1 -7.90929 1.24341 11.7779
34 1 1 0 1 -5.58487 4.81046 15.4566
35 1 1 0 1 -1.41928 3.08351 11.9187
36 1 1 0 1 1.63511 0.719375 4.33816
37 1 1 0 1 -5.96283 -1.87311 12.8401
38 1 1 0 1 2.67049 0.00189667 22.6193
39 1 1 0 1 0.588541 4.59235 9.80335
40 1 1 0 1 0.0674713 5.98271 18.5044
41 1 1 0 1 -5.49103 -1.49324 14.1054
42 1 1 0 1 -6.91898 1.71705 24.7664
43 1 1 0 1 0.362176 11.0864 23.813
44 1 1 0 1 -3.29452 10.0167 18.3432
45 1 1 0 1 -9.10533 5.27098 4.52654
46 1 1 0 1 -2.46513 3.08671 9.75455
47 1 1 0 1 -1.04466 1.12079 -3.40282
48 1 1 0 1 -7.97648 8.10598 5.48076
49 1 1 0 1 -0.257605 1.84298 -2.25152
50 1 1 0 1 -2.31112 3.79085 -1.88436
51 1 1 0 1 -1.59891 3.10696 3.31028
52 1 1 0 1 1.56945 1.9063 11.8906
53 1 1 0 1 -4.70785 -1.03044 3.69624
54 1 1 0 1 -5.16989 -3.28335 15.3828
55 1 1 0 1 -5.24071 3.90911 11.4427
56 1 1 0 1 0.738574 2.79648 9.62067
57 1 1 0 1 1.11479 10.993 13.8696
58 1 1 0 1 -6.9002 14.6469 11.3757
59 1 1 0 1 -6.13281 3.2139 10.7627
60 1 1 0 1 0.642312 3.835 19.1698
61 1 1 0 1 -8.37411 8.8886 11.5849
62 1 1 0 1 2.0416 1.3205 24.4667
63 1 1 0 1 0.207189 7.74809 5.16638
64 1 1 0 1 -1.16971 -4.0036 15.5988
65 1 1 0 1 -7.11044 3.80819 17.9793
66 1 1 0 1 -6.69466 4.52033 23.3122
67 1 1 0 1 -3.93365 -1.07858 -2.00899
68 1 1 0 1 -7.6223 4.93135 -5.32981
69 1 1 0 1 -5.45994 6.49652 0.339558
70 1 1 0 1 -0.608545 11.427 4.7638
71 1 1 0 1 2.00341 0.438018 5.75696
72 1 1 0 1 -13.6692 2.41607 1.48823
73 1 1 0 1 1.73014 2.80115 10.0279
74 1 1 0 1 -5.1582 3.82831 14.2661
75 1 1 0 1 -0.846384 1.05031 14.0029
76 1 1 0 1 -7.20833 -0.341545 9.65549
77 1 1 0 1 -5.16941 -2.77297 5.51908
78 1 1 0 1 1.63469 6.53558 11.7317
79 1 1 0 1 -2.08308 6.0397 13.5134
80 1 1 0 1 1.16281 -1.24558 13.5705
81 1 1 0 1 -2.67033 8.36187 20.066
82 1 1 0 1 -3.73918 -2.89118 10.1908
83 1 1 0 1 -4.93972 -2.02091 18.5538
84 1 1 0 1 3.76566 5.8909 16.1769
85 1 1 0 1 -4.59038 0.28248 23.4833
86 1 1 0 1 -4.26246 1.11274 21.9826
87 1 1 0 1 -1.52118 -0.710382 22.6022
88 1 1 0 1 -4.06025 8.28411 21.5441
89 1 1 0 1 -2.83178 9.29332 1.55381
90 1 1 0 1 -0.683586 12.9855 6.53811
91 1 1 0 1 -4.85607 1.12134 7.71373
92 1 1 0 1 -6.14261 6.87163 4.21966
93 1 1 0 1 -2.34966 6.11689 8.45365
94 1 1 0 1 -2.62931 -3.77253 3.31942
95 1 1 0 1 -5.97774 8.63689 7.96708
96 1 1 0 1 -1.28085 5.70632 7.77111
97 1 1 0 1 -2.56719 12.9657 14.002
98 1 1 0 1 0.324209 6.504 3.34987
99 1 1 0 1 -3.86047 7.67402 9.14031
100 1 1 0 1 0.824086 0.778352 5.69802
101 1 1 0 1 -6.96342 4.57086 7.66916
102 1 1 0 1 -5.04453 4.97866 10.2044
103 1 1 0 1 -4.47302 8.4589 8.89107
104 1 1 0 1 -4.53059 13.1436 15.0333
105 1 1 0 1 -1.21366 7.31135 4.03542
106 1 1 0 1 1.61233 3.28503 22.4124
107 1 1 0 1 -5.70545 8.13931 14.4681
108 1 1 0 1 -0.86193 8.00441 14.3163
109 1 1 0 1 -6.31265 5.56275 20.024
110 1 1 0 1 -6.95468 6.75817 22.8846
111 1 1 0 1 -3.52323 5.17814 1.65756
112 1 1 0 1 -2.83228 5.80199 -2.02315
113 1 1 0 1 -0.66249 12.3643 12.4216
114 1 1 0 1 -0.476804 8.89731 5.00483
115 1 1 0 1 -5.00807 10.0365 4.495
116 1 1 0 1 -4.52632 13.282 5.56217
117 1 1 0 1 -1.30781 6.7745 3.19556
118 1 1 0 1 -0.973078 3.44994 9.28117
119 1 1 0 1 -3.2298 4.27695 9.48276
120 1 1 0 1 -4.51939 1.37058 11.7779
121 1 1 0 1 0.294075 1.46786 4.42394
122 1 1 0 1 -2.15545 5.74536 9.8541
123 1 1 0 1 -5.19025 5.95016 12.3097
124 1 1 0 1 -7.33094 9.8964 14.396
125 1 1 0 1 -9.27594 8.82899 6.18988
126 1 1 0 1 -7.68609 6.00665 20.5309
127 1 1 0 1 -1.79416 9.9057 19.5663
128 1 1 0 1 -8.29699 12.651 13.0202
129 1 1 0 1 -3.27808 7.39139 22.2443
130 1 1 0 1 -8.28292 6.10636 14.5991
131 1 1 0 1 -7.6523 1.70878 10.2753
132 1 1 0 1 -3.90525 5.43112 26.0087
133 1 1 0 1 1.27339 7.35032 4.95747
134 1 1 0 1 -8.39357 4.57573 7.70226
135 1 1 0 1 -7.31784 1.67909 0.738134
136 1 1 0 1 -3.29989 10.15 1.10874
137 1 1 0 1 -9.51976 5.09395 8.53952
138 1 1 0 1 -9.37906 8.47676 11.3303
139 1 1 0 1 1.97283 5.18351 5.17315
140 1 1 0 1 -8.74834 6.05916 3.93352
141 1 1 0 1 3.59009 5.0467 1.27526
142 1 1 0 1 -4.34776 5.13634 12.082
143 1 1 0 1 -3.49296 4.57158 13.6658
144 1 1 0 1 3.30121 3.74832 8.9683
145 1 1 0 1 -7.33892 6.61624 18.6854
146 1 1 0 1 -5.07361 12.6339 22.786
147 1 1 0 1 -2.91145 17.6313 14.8705
148 1 1 0 1 -8.13691 14.8756 13.58
149 1 1 0 1 -5.58964 6.39007 17.3828
150 1 1 0 1 -6.6393 9.17409 10.0248
151 1 1 0 1 -6.79997 2.25815 21.9853
152 1 1 0 1 -4.91534 5.62577 16.0889
153 1 1 0 1 0.0564982 8.99471 20.2304
154 1 1 0 1 -0.97499 2.71894 27.304
155 1 1 0 1 -0.999766 1.2201 -5.27404
156 1 1 0 1 0.286799 6.38421 -2.15134
157 1 1 0 1 -1.65739 9.02449 1.84224
158 1 1 0 1 -2.82014 10.1176 3.92607
159 1 1 0 1 -6.35171 9.40906 0.342984
160 1 1 0 1 -3.50405 3.41675 7.72326
161 1 1 0 1 -2.09996 12.967 5.29612
162 1 1 0 1 -2.4687 6.45946 11.1678
163 1 1 0 1 2.89461 6.74431 7.86356
164 1 1 0 1 -6.93719 6.0791 10.8852
165 1 1 0 1 -1.98176 1.63211 11.5569
166 1 1 0 1 -1.53267 10.5783 18.7855
167 1 1 0 1 -3.16254 13.9214 17.7833
168 1 1 0 1 -6.75369 6.31269 19.4566
169 1 1 0 1 -5.97681 10.4271 18.2529
170 1 1 0 1 2.26278 6.24396 20.9043
171 1 1 0 1 -1.93405 11.1286 22.3596
172 1 1 0 1 0.825441 10.6401 21.0821
173 1 1 0 1 -2.1755 10.618 14.7801
174 1 1 0 1 3.19611 6.79108 25.4999
175 1 1 0 1 -7.14785 8.83261 18.0682
176 1 1 0 1 0.828035 3.07126 26.8638
177 1 1 0 1 -8.47463 3.94296 0.85469
178 1 1 0 1 0.0771398 15.5157 8.5827
179 1 1 0 1 -6.44158 15.6867 -2.2223
180 1 1 0 1 1.00261 14.6133 2.12216
181 1 1 0 1 -5.56411 15.6543 3.32732
182 1 1 0 1 -2.60264 13.4426 6.24382
183 1 1 0 1 -6.9089 12.3776 5.10973
184 1 1 0 1 -4.3413 5.89029 9.44625
185 1 1 0 1 -7.51416 1.24946 8.70188
186 1 1 0 1 -12.6834 16.6682 6.95877
187 1 1 0 1 -9.47341 15.6074 12.0552
188 1 1 0 1 -3.51442 1.88243 11.3631
189 1 1 0 1 1.94479 9.82205 15.4176
190 1 1 0 1 -7.51607 4.85713 12.8834
191 1 1 0 1 -3.94621 10.2548 19.4216
192 1 1 0 1 -2.18653 8.59003 16.7649
193 1 1 0 1 1.64729 5.55004 20.217
194 1 1 0 1 7.16777 12.3743 21.7343
195 1 1 0 1 -4.85956 8.82721 15.2161
196 1 1 0 1 -0.513081 8.46341 17.5733
197 1 1 0 1 -3.91551 8.54564 16.9661
198 1 1 0 1 9.51523 9.05449 25.7393
199 1 1 0 1 3.13736 11.0757 2.13165
200 1 1 0 1 5.37299 4.74112 4.98306
201 1 1 0 1 -6.246 12.0321 -2.58432
202 1 1 0 1 -0.563999 4.48272 8.22635
203 1 1 0 1 -6.36439 13.1978 5.97224
204 1 1 0 1 -3.18905 10.0748 12.9494
205 1 1 0 1 -0.177228 8.42875 3.16029
206 1 1 0 1 0.943238 10.1636 5.04911
207 1 1 0 1 -4.55687 8.31318 1.63327
208 1 1 0 1 -3.31193 5.59001 13.0339
209 1 1 0 1 -4.11231 2.53936 3.60142
210 1 1 0 1 -6.86754 7.60943 9.72174
211 1 1 0 1 -0.25615 7.64923 8.54998
212 1 1 0 1 -9.18483 5.49184 10.7788
213 1 1 0 1 2.35717 8.97976 23.5627
214 1 1 0 1 -14.8274 19.857 18.3748
215 1 1 0 1 -5.07436 10.8107 17.733
216 1 1 0 1 -4.06515 6.78759 18.9467
217 1 1 0 1 -7.56086 14.3689 24.0419
218 1 1 0 1 -2.53105 10.1211 22.1659
219 1 1 0 1 4.31672 11.167 24.0206
220 1 1 0 1 5.15133 13.2476 22.0876
221 1 1 0 1 7.71766 11.4951 -4.92571
222 1 1 0 1 -7.64311 11.7787 0.145046
223 1 1 0 1 -8.78814 12.8983 1.92051
224 1 1 0 1 -5.7829 8.63481 -1.25831
225 1 1 0 1 -9.066 16.8047 5.49008
226 1 1 0 1 -12.2277 13.2361 10.8822
227 1 1 0 1 -8.4912 13.8325 4.18903
228 1 1 0 1 -9.99267 17.7358 3.83544
229 1 1 0 1 -0.661978 8.42024 9.3769
230 1 1 0 1 -2.8455 14.6215 8.15231
231 1 1 0 1 -5.31112 10.3507 12.4146
232 1 1 0 1 1.19542 2.63257 13.9085
233 1 1 0 1 -2.49685 13.5548 13.162
234 1 1 0 1 -10.2299 8.98507 10.1141
235 1 1 0 1 -4.77292 11.1719 18.8786
236 1 1 0 1 -8.99215 13.7122 16.5588
237 1 1 0 1 -9.73201 14.8256 18.0248
238 1 1 0 1 -5.88336 13.7065 14.9992
239 1 1 0 1 -7.32956 11.6806 18.0439
240 1 1 0 1 -6.45439 13.8709 12.2447
241 1 1 0 1 -3.57157 7.6012 18.4283
242 1 1 0 1 -0.123543 2.11118 24.6584
243 1 1 0 1 -1.25864 14.6373 0.949215
244 1 1 0 1 -4.21769 12.663 1.44424
245 1 1 0 1 -3.77191 15.6898 1.48571
246 1 1 0 1 0.433038 11.3296 5.58273
247 1 1 0 1 -5.23811 11.1594 6.84996
248 1 1 0 1 -2.69391 1.83107 6.58744
249 1 1 0 1 -9.65291 14.3845 9.19748
250 1 1 0 1 -3.03313 4.65822 7.62687
251 1 1 0 1 -3.6354 7.75456 7.52047
252 1 1 0 1 -0.785329 3.79341 5.01075
253 1 1 0 1 -2.57103 -0.0487949 16.0615
254 1 1 0 1 1.13626 12.1009 16.1937
255 1 1 0 1 -7.62159 3.04319 6.48706
256 1 1 0 1 -10.4904 16.2885 11.5229
257 1 1 0 1 1.65941 17.2785 16.0469
258 1 1 0 1 0.209645 13.3482 16.895
259 1 1 0 1 -4.76079 13.1711 21.1134
260 1 1 0 1 -2.14615 15.1426 17.287
261 1 1 0 1 -3.60495 7.5595 19.8999
262 1 1 0 1 -3.11258 11.0584 22.5431
263 1 1 0 1 1.53863 16.4143 19.4472
264 1 1 0 1 0.9069 15.0948 21.8904
265 1 1 0 1 -5.0578 12.3569 -0.295022
266 1 1 0 1 7.24892 15.7928 3.33662
267 1 1 0 1 -3.93601 17.897 8.28279
268 1 1 0 1 -3.83328 5.79697 -1.41162
269 1 1 0 1 -0.248781 10.6698 11.2508
270 1 1 0 1 -0.346674 14.6763 -2.15041
271 1 1 0 1 -5.99925 4.09191 10.1479
272 1 1 0 1 -8.13954 10.5313 14.1994
273 1 1 0 1 -6.80171 11.4 6.64356
274 1 1 0 1 -8.83913 8.63219 7.1889
275 1 1 0 1 -8.37262 6.11034 12.7205
276 1 1 0 1 -2.91026 13.1436 12.2002
277 1 1 0 1 -3.93139 9.90189 15.0752
278 1 1 0 1 -0.809495 14.5051 14.56
279 1 1 0 1 -6.86888 16.666 11.2957
280 1 1 0 1 -6.68205 13.1885 7.84619
281 1 1 0 1 -0.0802865 9.80417 27.5913
282 1 1 0 1 -5.65174 12.3864 10.5003
283 1 1 0 1 0.262633 14.7692 13.8203
284 1 1 0 1 -4.78852 12.9099 15.9979
285 1 1 0 1 -4.77132 7.75889 17.3393
286 1 1 0 1 -1.44432 10.7261 17.6401
287 1 1 0 1 -6.62874 19.5627 3.15954
288 1 1 0 1 -2.02254 16.1847 -1.63624
289 1 1 0 1 -8.99202 4.71893 5.79369
290 1 1 0 1 -3.05405 10.8284 4.71266
291 1 1 0 1 -10.2683 4.61285 9.28565
292 1 1 0 1 -7.58967 14.0499 8.15288
293 1 1 0 1 1.0187 8.45241 5.40052
294 1 1 0 1 -1.31894 12.7084 8.4595
295 1 1 0 1 -4.55191 8.77922 10.3104
296 1 1 0 1 -2.16348 13.3654 11.543
297 1 1 0 1 -6.76855 10.7259 7.89459
298 1 1 0 1 -8.56771 4.07661 17.97
299 1 1 0 1 1.07263 20.7638 14.7054
300 1 1 0 1 -1.66708 18.0208 19.2391
301 1 1 0 1 -5.42951 14.7617 16.3206
302 1 1 0 1 -6.03243 13.4654 17.9193
303 1 1 0 1 -6.9725 16.7463 9.96081
304 1 1 0 1 -0.0515071 9.78892 7.87443
305 1 1 0 1 2.67174 13.1159 19.2668
306 1 1 0 1 0.027325 14.1788 21.9555
307 1 1 0 1 2.28939 16.1783 17.4556
308 1 1 0 1 1.90693 25.3249 29.9953
309 1 1 0 1 -0.307144 13.966 3.90716
310 1 1 0 1 1.50844 15.846 4.11036
311 1 1 0 1 -7.92273 12.8143 -0.743551
312 1 1 0 1 -9.42344 5.54964 3.25855
313 1 1 0 1 -8.46425 13.7377 -0.507013
314 1 1 0 1 0.215003 11.4241 2.92469
315 1 1 0 1 0.549192 6.70783 8.8417
316 1 1 0 1 -7.98569 14.697 2.95725
317 1 1 0 1 -6.40515 13.4105 10.1171
318 1 1 0 1 -5.66148 16.1459 11.0092
319 1 1 0 1 -3.52892 10.805 9.08297
320 1 1 0 1 1.65566 19.8873 9.59196
321 1 1 0 1 -7.97011 15.562 15.6092
322 1 1 0 1 -1.48541 12.9855 14.6885
323 1 1 0 1 -4.90384 17.2287 11.587
324 1 1 0 1 -1.79396 12.5126 6.14862
325 1 1 0 1 -0.371894 10.5143 7.00791
326 1 1 0 1 -8.37839 17.626 17.7491
327 1 1 0 1 -6.19012 13.7936 18.9061
328 1 1 0 1 -3.54262 16.7271 21.0439
329 1 1 0 1 3.21925 9.96908 26.0503
330 1 1 0 1 3.95466 13.7826 24.0352
331 1 1 0 1 -2.05457 14.2035 6.8915
332 1 1 0 1 -4.87245 19.2006 4.53757
333 1 1 0 1 -3.44409 10.1799 5.79228
334 1 1 0 1 -3.6714 16.5265 2.35569
335 1 1 0 1 -0.846394 12.9181 9.43075
336 1 1 0 1 -6.62455 10.6651 5.85905
337 1 1 0 1 -2.08646 11.4187 7.12314
338 1 1 0 1 -3.15509 10.0715 9.90593
339 1 1 0 1 -9.63166 12.2245 6.78913
340 1 1 0 1 1.39884 9.84039 7.76793
341 1 1 0 1 -6.79043 6.03065 7.30581
342 1 1 0 1 -5.45236 14.7879 12.0275
343 1 1 0 1 -2.91359 12.4698 8.14674
344 1 1 0 1 -7.79193 11.7464 13.4583
345 1 1 0 1 -8.14031 18.6761 12.7389
346 1 1 0 1 4.66028 18.259 16.6471
347 1 1 0 1 0.62838 18.6064 20.2817
348 1 1 0 1 -1.25136 12.7915 20.8098
349 1 1 0 1 -1.91024 19.4692 17.3725
350 1 1 0 1 -0.396049 18.6954 20.8092
351 1 1 0 1 -7.78373 21.6291 15.785
352 1 1 0 1 0.141609 17.4865 28.1207
353 1 1 0 1 -8.74102 20.3703 -2.75653
354 1 1 0 1 1.12832 19.981 -0.222759
355 1 1 0 1 -9.11636 7.54762 6.2811
356 1 1 0 1 -5.77044 10.6731 7.55051
357 1 1 0 1 -0.912463 14.6979 3.99161
358 1 1 0 1 -2.27888 14.8274 6.16685
359 1 1 0 1 -8.64959 14.7762 6.75979
360 1 1 0 1 -0.664273 14.6132 8.2279
361 1 1 0 1 -3.55231 20.4298 13.6321
362 1 1 0 1 -0.412916 11.5961 9.21366
363 1 1 0 1 3.11056 13.6123 10.0767
364 1 1 0 1 6.17207 12.5288 9.87922
365 1 1 0 1 -2.0259 6.51006 7.36255
366 1 1 0 1 -8.4106 16.8074 12.4248
367 1 1 0 1 -0.53839 11.1307 12.2282
368 1 1 0 1 -4.67024 19.0008 18.4205
369 1 1 0 1 -4.95068 13.3 13.0375
370 1 1 0 1 -2.73283 7.07411 8.30574
371 1 1 0 1 -5.35019 20.0988 23.8243
372 1 1 0 1 -3.13497 14.3782 18.8447
373 1 1 0 1 -7.29814 11.9493 19.3047
374 1 1 0 1 -1.54868 13.0111 29.0237
375 1 1 0 1 -7.63753 5.60395 4.28749
376 1 1 0 1 -4.50618 14.5989 0.941319
377 1 1 0 1 -7.99863 13.2083 1.24485
378 1 1 0 1 -9.25368 14.3512 4.79357
379 1 1 0 1 -2.72363 17.0841 -4.47063
380 1 1 0 1 -5.12914 14.9193 2.60369
381 1 1 0 1 -5.27244 15.8606 5.60723
382 1 1 0 1 -13.2471 15.5258 15.5549
383 1 1 0 1 -3.55122 19.154 12.3388
384 1 1 0 1 0.898121 12.7699 12.546
385 1 1 0 1 -4.50198 15.9289 9.05056
386 1 1 0 1 -5.47981 11.708 9.53463
387 1 1 0 1 -6.40386 9.60911 17.7135
388 1 1 0 1 -3.18991 14.9931 17.7621
389 1 1 0 1 -3.98243 16.698 14.2889
390 1 1 0 1 -2.19033 14.6609 18.3205
391 1 1 0 1 -4.08225 19.7526 19.6171
392 1 1 0 1 -8.72627 16.7595 8.26523
393 1 1 0 1 -5.36858 10.8112 14.3074
394 1 1 0 1 -2.8226 19.5781 21.5534
395 1 1 0 1 -12.7554 14.4787 14.8387
396 1 1 0 1 -0.858116 14.689 24.8311
397 1 1 0 1 -1.7266 18.4626 1.26515
398 1 1 0 1 -3.52868 26.2987 0.749606
399 1 1 0 1 -2.07084 15.2128 -0.293743
400 1 1 0 1 -5.67728 8.06614 5.82651
401 1 1 0 1 1.77085 12.2658 9.32363
402 1 1 0 1 -3.53193 13.0803 10.0947
403 1 1 0 1 3.33247 17.0039 10.3394
404 1 1 0 1 -3.94348 25.6181 3.97822
405 1 1 0 1 -11.2889 15.8263 8.64497
406 1 1 0 1 -5.45223 15.2802 8.09724
407 1 1 0 1 -3.38216 16.3633 6.41002
408 1 1 0 1 -6.50286 17.5215 8.0984
409 1 1 0 1 -6.57353 11.7378 16.1249
410 1 1 0 1 -7.10485 5.90296 8.36795
411 1 1 0 1 1.81576 15.4967 9.88342
412 1 1 0 1 -9.38323 15.5722 6.68633
413 1 1 0 1 -8.12616 16.8134 20.3922
414 1 1 0 1 -5.58328 11.8437 20.413
415 1 1 0 1 -3.34297 16.2565 25.2496
416 1 1 0 1 -2.69838 11.8037 26.4584
417 1 1 0 1 1.4571 18.6978 23.8343
418 1 1 0 1 2.52491 13.6206 27.5442
419 1 1 0 1 -6.8765 18.9707 6.54913
420 1 1 0 1 -2.81432 28.3101 14.7493
421 1 1 0 1 -8.41555 18.2923 3.25852
422 1 1 0 1 -3.18532 6.72262 4.25878
423 1 1 0 1 -3.09709 25.9542 8.55904
424 1 1 0 1 -3.67023 16.7019 9.33684
425 1 1 0 1 -3.91767 13.8578 3.50885
426 1 1 0 1 -4.4899 23.1157 -1.05948
427 1 1 0 1 -3.90304 23.0965 8.35965
428 1 1 0 1 3.17103 18.4883 2.20622
429 1 1 0 1 -6.03601 22.4582 8.21335
430 1 1 0 1 -0.33636 15.5391 9.62986
431 1 1 0 1 -8.92937 15.0824 15.5056
432 1 1 0 1 1.36141 26.662 12.8165
433 1 1 0 1 -5.54589 18.2718 13.1515
434 1 1 0 1 -4.51348 8.51058 14.2739
435 1 1 0 1 -2.79916 9.18757 21.3823
436 1 1 0 1 -7.4359 14.62 15.4703
437 1 1 0 1 -4.0179 19.1008 16.1724
438 1 1 0 1 -5.6883 17.3945 16.1751
439 1 1 0 1 -2.92483 23.1708 21.3185
440 1 1 0 1 -4.52235 11.1723 22.8199
441 1 1 0 1 -3.41676 17.56 -3.08384
442 1 1 0 1 -3.99174 24.3202 7.8617
443 1 1 0 1 -3.06846 17.6248 -1.12081
444 1 1 0 1 -2.54137 25.2779 -0.665618
445 1 1 0 1 -10.3674 14.5607 3.72556
446 1 1 0 1 1.15421 5.62507 9.49088
447 1 1 0 1 -1.45832 11.4444 6.22206
448 1 1 0 1 -10.6771 14.6958 9.42583
449 1 1 0 1 -4.58056 22.4778 11.2569
450 1 1 0 1 -1.85112 13.0009 21.9187
451 1 1 0 1 -8.82302 16.2214 10.8208
452 1 1 0 1 -5.43362 18.4159 20.9399
453 1 1 0 1 -5.60867 17.0617 18.4244
454 1 1 0 1 3.6338 24.741 15.9901
455 1 1 0 1 -3.71211 6.88187 6.75304
456 1 1 0 1 -3.77484 14.9782 12.6453
457 1 1 0 1 -7.25647 22.6725 12.3534
458 1 1 0 1 -11.2941 14.7425 14.9406
459 1 1 0 1 -6.30775 15.4887 16.9416
460 1 1 0 1 -1.63974 12.1878 19.9394
461 1 1 0 1 0.185309 21.8346 12.7481
462 1 1 0 1 4.27278 24.0442 21.3874
463 1 1 0 1 1.74732 23.5844 -7.13621
464 1 1 0 1 -1.34475 20.0758 9.86323
465 1 1 0 1 5.13725 25.6638 1.0054
466 1 1 0 1 3.18531 27.6941 2.66178
467 1 1 0 1 -7.24074 19.4645 10.6039
468 1 1 0 1 -2.17656 18.967 4.16021
469 1 1 0 1 -2.32471 14.5849 11.5566
470 1 1 0 1 -1.90582 21.5445 8.22262
471 1 1 0 1 -4.36702 8.32646 5.68296
472 1 1 0 1 3.79087 28.3332 12.1179
473 1 1 0 1 -5.41646 18.987 9.14406
474 1 1 0 1 0.858226 18.5236 10.1061
475 1 1 0 1 -0.331043 16.1782 14.9523
476 1 1 0 1 2.50325 24.2181 18.8129
477 1 1 0 1 -1.01245 19.0023 15.0063
478 1 1 0 1 3.91422 23.0352 15.1127
479 1 1 0 1 -5.62618 29.0727 16.5788
480 1 1 0 1 3.54642 20.4454 19.4505
481 1 1 0 1 -1.10516 20.276 18.0881
482 1 1 0 1 -5.56006 31.6838 16.271
483 1 1 0 1 -2.72298 18.4931 31.6475
484 1 1 0 1 -2.84734 21.8137 24.9254
485 1 1 0 1 -1.7493 -9.39678 3.24057
486 1 1 0 1 0.19967 6.53693 -7.82545
487 1 1 0 1 -1.06789 5.99443 -1.43948
488 1 1 0 1 -2.04197 -0.244733 2.37149
489 1 1 0 1 -0.483377 3.90932 -2.07475
490 1 1 0 1 -7.46725 -1.93576 3.45746
491 1 1 0 1 -5.44903 3.40461 7.46035
492 1 1 0 1 -0.924484 -10.163 11.5071
493 1 1 0 1 -1.11588 -2.99041 11.447
494 1 1 0 1 -5.39562 0.0678767 4.3878
495 1 1 0 1 -7.04816 5.7482 15.0835
496 1 1 0 1 -1.61004 7.69956 15.1896
497 1 1 0 1 -3.30092 -6.24223 13.492
498 1 1 0 1 -1.66994 2.20354 19.2921
499 1 1 0 1 -0.846101 2.21542 9.13827
500 1 1 0 1 -4.81674 -4.10775 18.2647
501 1 1 0 1 -2.08301 -2.45195 9.45871
502 1 1 0 1 0.369776 -7.08589 18.657
503 1 1 0 1 -4.48602 9.52899 16.1396
504 1 1 0 1 -1.9209 -1.28889 10.6988
505 1 1 0 1 -7.40979 -2.56918 13.0956
506 1 1 0 1 -3.06035 4.49013 15.8773
507 1 1 0 1 -1.66239 4.12882 -2.66735
508 1 1 0 1 -3.29712 3.36242 0.328351
509 1 1 0 1 -1.12892 4.42307 3.52029
510 1 1 0 1 -4.67416 -2.79809 -0.685619
511 1 1 0 1 2.42469 0.00795286 3.25693
512 1 1 0 1 -5.73837 9.68835 7.57992
513 1 1 0 1 -1.58489 -3.16903 7.15252
514 1 1 0 1 -2.31228 0.783967 2.30934
515 1 1 0 1 9.99997 7.43658 1.73445
516 1 1 0 1 -6.94764 6.30861 12.9174
517 1 1 0 1 -5.01111 2.12595 8.48979
518 1 1 0 1 0.598832 0.556169 3.88525
519 1 1 0 1 0.465654 0.795805 18.0775
520 1 1 0 1 0.233684 -1.5936 10.4419
521 1 1 0 1 -0.183818 5.42084 10.7489
522 1 1 0 1 -6.01433 7.56892 8.09407
523 1 1 0 1 2.44921 1.03449 13.2894
524 1 1 0 1 -2.77144 3.63051 15.308
525 1 1 0 1 -5.33873 2.66415 25.5589
526 1 1 0 1 3.14293 -5.40855 26.9316
527 1 1 0 1 0.851565 8.05987 19.2394
528 1 1 0 1 3.17862 2.7991 25.9839
529 1 1 0 1 9.83136 8.13135 3.92421
530 1 1 0 1 0.190684 -0.49888 -6.0969
531 1 1 0 1 0.451508 8.77158 -4.29822
532 1 1 0 1 -1.32085 -4.44196 3.01321
533 1 1 0 1 -5.19349 2.59887 -2.01276
534 1 1 0 1 0.046572 -1.64094 5.82846
535 1 1 0 1 3.32868 4.44446 0.612867
536 1 1 0 1 -1.33775 9.73027 4.32025
537 1 1 0 1 -3.47194 3.79392 6.70102
538 1 1 0 1 -3.70917 -2.55123 13.5482
539 1 1 0 1 -0.0711463 5.09454 14.4911
540 1 1 0 1 0.493142 7.9719 11.1133
541 1 1 0 1 -6.19934 8.00673 10.5029
542 1 1 0 1 -5.18691 7.19967 12.164
543 1 1 0 1 -6.24878 9.07368 11.2902
544 1 1 0 1 0.872215 5.55687 10.5693
545 1 1 0 1 1.4182 5.31706 11.9396
546 1 1 0 1 -1.96815 -1.94604 14.1198
547 1 1 0 1 0.846398 1.10271 22.0353
548 1 1 0 1 -0.384988 6.58374 28.7097
549 1 1 0 1 -2.41104 7.24242 25.1802
550 1 1 0 1 -5.03871 5.71388 21.2581
551 1 1 0 1 -1.77282 9.83009 -0.876072
552 1 1 0 1 -5.3361 5.31288 -3.90804
553 1 1 0 1 -0.687881 8.40516 0.313072
554 1 1 0 1 0.37067 5.10999 -2.31567
555 1 1 0 1 -0.945756 9.87287 -3.78488
556 1 1 0 1 -1.29621 2.37571 4.35285
557 1 1 0 1 3.15976 4.45012 3.22988
558 1 1 0 1 0.540028 3.1735 6.70748
559 1 1 0 1 -2.64423 -0.739375 11.8275
560 1 1 0 1 -4.80402 -1.95358 2.94382
561 1 1 0 1 0.911225 4.49165 16.2382
562 1 1 0 1 2.53343 4.76125 18.1076
563 1 1 0 1 -2.66014 2.85033 14.6639
564 1 1 0 1 -4.85316 -1.91945 6.04727
565 1 1 0 1 5.7908 5.34512 16.6955
566 1 1 0 1 2.5528 5.95155 14.5289
567 1 1 0 1 -2.71583 5.11082 18.5047
568 1 1 0 1 5.47537 5.1811 15.6639
569 1 1 0 1 0.845029 7.78638 15.0893
570 1 1 0 1 -5.41881 3.81985 21.2983
571 1 1 0 1 5.39052 7.58232 18.9808
572 1 1 0 1 0.465451 4.43097 20.5281
573 1 1 0 1 1.49983 7.23732 -1.18278
574 1 1 0 1 -2.55117 5.73076 6.46254
575 1 1 0 1 -4.49698 2.04642 -2.88508
576 1 1 0 1 -3.31121 6.76242 -0.954686
577 1 1 0 1 -4.9385 1.99278 6.46983
578 1 1 0 1 -5.42629 9.7448 13.8742
579 1 1 0 1 -4.35849 3.72556 5.07573
580 1 1 0 1 -2.6946 2.77686 10.7162
581 1 1 0 1 -2.64055 10.1496 10.9503
582 1 1 0 1 1.91573 3.92979 10.277
583 1 1 0 1 -4.43651 7.68842 11.4708
584 1 1 0 1 -2.71362 8.70629 15.9459
585 1 1 0 1 -8.24235 1.82409 13.5639
586 1 1 0 1 -0.154685 14.4909 16.7607
587 1 1 0 1 -6.58388 13.925 14.0088
588 1 1 0 1 -5.37363 2.05652 18.562
589 1 1 0 1 -6.0681 6.07978 16.1911
590 1 1 0 1 -6.41773 6.17977 14.457
591 1 1 0 1 -5.38905 4.22584 12.671
592 1 1 0 1 -0.215143 0.532614 23.9823
593 1 1 0 1 -0.0888533 3.9668 16.4359
594 1 1 0 1 -8.46714 -2.54138 17.5544
595 1 1 0 1 0.102758 7.27257 -3.69076
596 1 1 0 1 1.38073 7.32075 3.31045
597 1 1 0 1 -7.11913 2.38666 5.71277
598 1 1 0 1 3.79635 7.30271 0.787789
599 1 1 0 1 2.52912 11.3168 3.12297
600 1 1 0 1 -2.7671 8.54476 5.09672
601 1 1 0 1 -6.6083 5.57575 4.76676
602 1 1 0 1 0.14562 -3.42284 2.22021
603 1 1 0 1 2.55039 -5.20837 14.2271
604 1 1 0 1 8.11765 8.40459 14.7898
605 1 1 0 1 1.30927 6.62922 10.6845
606 1 1 0 1 -8.42898 -2.02618 12.7183
607 1 1 0 1 -5.82643 6.15933 6.5708
608 1 1 0 1 0.460701 -2.63571 9.85717
609 1 1 0 1 5.46841 11.391 14.4761
610 1 1 0 1 2.75238 4.66407 13.9131
611 1 1 0 1 2.45111 5.83662 10.5346
612 1 1 0 1 4.67588 3.60498 21.088
613 1 1 0 1 -1.81983 3.11294 16.03
614 1 1 0 1 -4.21265 6.70694 26.2277
615 1 1 0 1 -9.48843 7.62617 20.8575
616 1 1 0 1 -7.65877 8.17449 16.3815
617 1 1 0 1 0.937923 1.6534 -2.74314
618 1 1 0 1 -7.25384 6.31445 0.0902466
619 1 1 0 1 1.28843 16.7277 2.48378
620 1 1 0 1 3.31488 8.2382 7.11983
621 1 1 0 1 -3.02341 5.19634 4.62467
622 1 1 0 1 -5.43479 4.0453 5.05859
623 1 1 0 1 -5.34127 9.01734 4.04001
624 1 1 0 1 1.13776 4.32323 3.10101
625 1 1 0 1 -2.05219 4.42774 5.37417
626 1 1 0 1 0.910407 8.25395 13.2551
627 1 1 0 1 -7.48712 -1.78048 15.0154
628 1 1 0 1 1.78123 -0.432602 4.23066
629 1 1 0 1 0.552456 11.2608 17.711
630 1 1 0 1 0.275928 11.5606 14.3201
631 1 1 0 1 -0.944981 9.04214 14.9885
632 1 1 0 1 4.86252 9.97249 16.9839
633 1 1 0 1 -12.8482 9.79972 14.4126
634 1 1 0 1 -0.938822 5.84168 15.7568
635 1 1 0 1 2.29796 5.42181 17.4486
636 1 1 0 1 -0.81336 4.089 18.7143
637 1 1 0 1 -5.33411 3.09996 17.9947
638 1 1 0 1 -2.01576 5.13351 20.6063
639 1 1 0 1 -4.14286 -0.760352 7.16156
640 1 1 0 1 -0.00256179 9.72848 4.21721
641 1 1 0 1 8.71291 6.53228 1.09059
642 1 1 0 1 1.54119 12.6716 5.79295
643 1 1 0 1 0.00433822 9.39843 6.60461
644 1 1 0 1 -3.19802 5.93367 -0.301559
645 1 1 0 1 -0.377091 3.4588 7.52144
646 1 1 0 1 1.9248 3.83348 6.24259
647 1 1 0 1 -5.01375 9.38 -3.61039
648 1 1 0 1 -4.77392 11.7582 11.4207
649 1 1 0 1 -4.38858 10.2461 7.44204
650 1 1 0 1 4.21659 5.26012 12.3559
651 1 1 0 1 0.358546 7.78788 7.61405
652 1 1 0 1 -5.17819 15.3761 18.5783
653 1 1 0 1 -4.84803 19.4823 12.617
654 1 1 0 1 2.52517 10.5887 22.8353
655 1 1 0 1 -4.08819 8.85983 7.7475
656 1 1 0 1 -6.29244 5.38529 17.7869
657 1 1 0 1 3.23678 8.02742 14.6701
658 1 1 0 1 2.44909 11.101 26.6055
659 1 1 0 1 -3.07715 7.84482 16.6308
660 1 1 0 1 2.06325 8.01207 20.1393
661 1 1 0 1 -2.00794 10.8132 -0.688484
662 1 1 0 1 1.11048 10.6667 -2.40832
663 1 1 0 1 -2.02255 7.39329 1.45325
664 1 1 0 1 -4.70497 9.6461 5.45555
665 1 1 0 1 -6.57096 3.54524 4.75476
666 1 1 0 1 5.03662 9.81702 15.7328
667 1 1 0 1 -5.08433 7.18196 -1.92059
668 1 1 0 1 -8.54906 3.9994 1.91684
669 1 1 0 1 0.447341 7.42236 4.05303
670 1 1 0 1 -3.18588 6.18455 9.22146
671 1 1 0 1 0.432215 4.12186 2.13507
672 1 1 0 1 1.86331 18.3283 14.3179
673 1 1 0 1 -4.8088 16.4487 14.95
674 1 1 0 1 -1.01687 15.5313 16.9325
675 1 1 0 1 -2.08179 12.7105 18.7949
676 1 1 0 1 -6.73513 4.90858 15.6571
677 1 1 0 1 -4.64996 11.698 20.9887
678 1 1 0 1 5.16939 6.07803 17.3227
679 1 1 0 1 -8.5937 5.27621 16.7253
680 1 1 0 1 -1.96573 8.74319 14.2435
681 1 1 0 1 -0.469152 10.0466 21.0847
682 1 1 0 1 3.77334 12.0472 24.5012
683 1 1 0 1 -0.0956466 12.0751 4.25464
684 1 1 0 1 -1.37831 4.88547 0.10916
685 1 1 0 1 -3.94085 14.3021 8.31769
686 1 1 0 1 -0.173172 3.93095 6.35767
687 1 1 0 1 0.175887 16.8009 4.94736
688 1 1 0 1 -5.35294 11.8296 7.74285
689 1 1 0 1 -3.17412 3.88234 5.54214
690 1 1 0 1 1.85345 9.24626 14.5136
691 1 1 0 1 -0.318808 2.13808 3.88566
692 1 1 0 1 -1.40345 7.77585 8.90568
693 1 1 0 1 1.00211 6.58709 18.0146
694 1 1 0 1 -7.13091 13.1292 15.2323
695 1 1 0 1 -1.37165 9.22877 17.3386
696 1 1 0 1 -2.19191 5.98061 18.6664
697 1 1 0 1 0.55384 10.4738 15.0172
698 1 1 0 1 -7.83958 9.35254 18.9108
699 1 1 0 1 -0.174053 7.2802 20.6469
700 1 1 0 1 3.79552 13.6396 15.3597
701 1 1 0 1 -2.33618 14.0127 17.0363
702 1 1 0 1 -4.33493 5.86688 17.4467
703 1 1 0 1 -1.00484 12.5177 19.1546
704 1 1 0 1 2.84576 18.5919 19.471
705 1 1 0 1 -0.741329 11.3312 3.42859
706 1 1 0 1 -0.953032 8.57694 -0.73549
707 1 1 0 1 -1.38755 24.7376 2.17112
708 1 1 0 1 4.62924 8.9684 2.4316
709 1 1 0 1 -5.59254 10.2566 5.41
710 1 1 0 1 0.592634 14.2797 5.64559
711 1 1 0 1 -5.3685 5.55174 7.46558
712 1 1 0 1 -4.54943 14.2801 13.0485
713 1 1 0 1 -3.41237 11.9993 10.2401
714 1 1 0 1 0.866319 11.524 4.41545
715 1 1 0 1 -3.66953 9.12862 15.7357
716 1 1 0 1 -2.67071 13.4704 15.0971
717 1 1 0 1 -6.61799 14.2577 15.9291
718 1 1 0 1 -0.312994 11.3234 13.4381
719 1 1 0 1 -2.10557 9.86231 18.199
720 1 1 0 1 -1.91128 13.6792 20.8832
721 1 1 0 1 -9.2548 10.3719 15.3748
722 1 1 0 1 5.32832 17.6798 26.2756
723 1 1 0 1 -0.330768 11.9367 18.1796
724 1 1 0 1 -0.114565 12.7627 24.4543
725 1 1 0 1 1.19246 15.2631 27.0826
726 1 1 0 1 -5.50015 19.0774 24.5051
727 1 1 0 1 2.27953 13.7413 0.864447
728 1 1 0 1 -1.95425 12.1456 -0.644796
729 1 1 0 1 -5.77103 6.17967 -3.69884
730 1 1 0 1 -2.30916 16.8517 5.99469
731 1 1 0 1 -1.58609 13.6792 6.049
732 1 1 0 1 5.21835 11.8567 5.62422
733 1 1 0 1 -3.81656 9.51625 1.94532
734 1 1 0 1 1.37302 4.93091 5.99178
735 1 1 0 1 -4.27238 14.1025 4.45602
736 1 1 0 1 -7.33533 15.5727 -0.460272
737 1 1 0 1 0.675367 11.5719 15.388
738 1 1 0 1 10.4601 14.1566 10.0125
739 1 1 0 1 -2.60777 7.77809 17.5549
740 1 1 0 1 -3.08975 11.0381 21.3918
741 1 1 0 1 -3.46084 8.65855 19.5876
742 1 1 0 1 4.15487 8.03969 23.466
743 1 1 0 1 -0.612238 12.8786 22.4027
744 1 1 0 1 5.2515 15.9693 26.5856
745 1 1 0 1 -1.95022 9.1986 22.6128
746 1 1 0 1 -0.522673 10.8852 18.2465
747 1 1 0 1 0.765299 13.2809 23.8189
748 1 1 0 1 1.29572 16.536 28.7836
749 1 1 0 1 0.964846 13.6518 4.6581
750 1 1 0 1 0.770905 10.6042 6.5605
751 1 1 0 1 -12.018 11.4841 8.09021
752 1 1 0 1 1.14855 15.7422 7.96306
753 1 1 0 1 -1.25811 10.5985 7.73807
754 1 1 0 1 1.20618 11.1532 2.45483
755 1 1 0 1 0.552242 18.694 1.16179
756 1 1 0 1 -10.0915 23.2169 4.23831
757 1 1 0 1 -4.59263 12.5333 13.6937
758 1 1 0 1 -6.56987 18.6366 13.3461
759 1 1 0 1 -6.82061 6.75416 8.94396
760 1 1 0 1 -0.916297 4.85114 15.0747
761 1 1 0 1 -4.36592 18.1285 15.7186
762 1 1 0 1 -5.92165 12.7809 12.619
763 1 1 0 1 -0.0186133 14.2657 11.3209
764 1 1 0 1 -1.98871 18.5768 15.1068
765 1 1 0 1 2.22077 14.7215 20.1508
766 1 1 0 1 -5.48654 13.7077 16.3611
767 1 1 0 1 -2.92081 13.1404 19.4046
768 1 1 0 1 -1.68383 14.0377 23.6783
769 1 1 0 1 4.44474 10.8933 21.3305
770 1 1 0 1 -2.71768 16.2904 23.9575
771 1 1 0 1 -3.75106 12.789 3.56798
772 1 1 0 1 -0.792712 16.6644 12.1084
773 1 1 0 1 -3.73802 11.9599 4.82397
774 1 1 0 1 -1.95384 12.7282 12.8803
775 1 1 0 1 -7.67518 12.9521 -2.46392
776 1 1 0 1 -0.634368 8.90401 7.31961
777 1 1 0 1 -4.59529 17.7348 9.17707
778 1 1 0 1 -3.43731 11.0037 12.9158
779 1 1 0 1 -1.57792 16.7049 16.443
780 1 1 0 1 -4.90978 14.3307 10.7811
781 1 1 0 1 2.35393 16.1346 18.5657
782 1 1 0 1 -4.56487 16.1094 16.2882
783 1 1 0 1 -4.94934 16.3945 9.84269
784 1 1 0 1 -1.82283 17.3671 22.9465
785 1 1 0 1 -5.85097 22.3875 16.7685
786 1 1 0 1 -2.81786 10.7981 19.1512
787 1 1 0 1 5.43399 14.0292 23.506
788 1 1 0 1 -10.2519 17.5247 12.423
789 1 1 0 1 -3.27238 19.0222 20.1356
790 1 1 0 1 -2.00067 12.0334 23.7879
791 1 1 0 1 -1.612 13.1972 19.7589
792 1 1 0 1 -0.826613 10.5084 23.3573
793 1 1 0 1 -7.47892 15.7824 4.37756
794 1 1 0 1 2.71 17.6496 3.73443
795 1 1 0 1 0.162296 20.2225 -2.69977
796 1 1 0 1 -0.881475 16.0828 8.82875
797 1 1 0 1 -2.56183 22.1348 1.35209
798 1 1 0 1 -0.482911 15.9109 1.81895
799 1 1 0 1 -2.45716 12.2165 9.61616
800 1 1 0 1 4.06036 6.47547 2.66072
801 1 1 0 1 6.2748 15.0946 12.07
802 1 1 0 1 -6.89617 20.4494 11.0705
803 1 1 0 1 -1.82085 16.359 17.5168
804 1 1 0 1 -1.78171 14.8353 14.557
805 1 1 0 1 -6.35186 16.2636 18.6126
806 1 1 0 1 -1.80385 4.86837 6.56424
807 1 1 0 1 -1.79018 14.6028 16.2722
808 1 1 0 1 0.976432 21.1928 9.52337
809 1 1 0 1 -4.68089 17.7282 13.6638
810 1 1 0 1 -0.321635 16.0876 22.0149