ITEM: TIMESTEP
24000
ITEM: NUMBER OF ATOMS
6752
ITEM: BOX BOUNDS pp pp pp
0.0000000000000000e+00 2.2000000000000000e+01
0.0000000000000000e+00 2.2000000000000000e+01
0.0000000000000000e+00 2.2000000000000000e+01
ITEM: ATOMS id mol type q mass xu yu zu
1 1 1 0 1 -1.1465 -9.14526 5.58597
2 1 1 0 1 -2.26403 6.99637 -1.70288
3 1 1 0 1 -2.35983 -0.0947462 3.51104
4 1 1 0 1 -11.1638 -0.945534 6.5691
5 1 1 0 1 0.738383 10.1509 0.502057
6 1 1 0 1 -11.905 -5.46488 8.71363
7 1 1 0 1 5.99681 9.22727 7.18242
8 1 1 0 1 4.93184 -4.02085 14.0644
9 1 1 0 1 0.240603 2.75204 10.9296
10 1 1 0 1 -7.79602 -1.73826 11.2395
11 1 1 0 1 0.271532 -1.80189 4.30387
12 1 1 0 1 -6.61547 -3.21098 16.0018
13 1 1 0 1 4.21808 3.84674 12.8888
14 1 1 0 1 -1.60276 12.73 12.9563
15 1 1 0 1 -7.86243 0.318617 8.68054
16 1 1 0 1 -4.21589 -7.57809 13.6193
17 1 1 0 1 -0.878952 -2.52902 17.6433
18 1 1 0 1 -8.72086 -7.6433 19.7119
19 1 1 0 1 -3.65065 5.08 14.1877
20 1 1 0 1 -7.60614 5.00054 19.8472
21 1 1 0 1 -7.11015 4.6726 14.6624
22 1 1 0 1 -0.119461 9.665 18.6155
23 1 1 0 1 -9.19784 0.599003 7.04251
24 1 1 0 1 -7.38441 5.42098 0.122446
25 1 1 0 1 -1.33737 3.82016 -5.7453
26 1 1 0 1 2.2197 -4.54012 5.65103
27 1 1 0 1 -6.65498 -1.32542 11.3491
28 1 1 0 1 -1.73347 4.32943 0.80096
29 1 1 0 1 -3.06003 -0.0378266 16.8191
30 1 1 0 1 -2.52075 1.30732 17.4354
31 1 1 0 1 -5.65535 8.92891 10.0469
32 1 1 0 1 -2.77105 -4.84745 4.67116
33 1 1 0 1 -6.96933 -0.519474 8.79772
34 1 1 0 1 -2.71327 3.12865 15.5943
35 1 1 0 1 -0.0599378 3.31243 14.0111
36 1 1 0 1 4.61208 1.56624 6.05899
37 1 1 0 1 -3.43312 4.19024 14.7913
38 1 1 0 1 3.08835 1.68335 24.6297
39 1 1 0 1 -0.491878 6.93388 9.70932
40 1 1 0 1 -3.81101 4.6419 16.8246
41 1 1 0 1 -7.23737 -1.72632 14.7057
42 1 1 0 1 -3.36031 3.17506 27.4772
43 1 1 0 1 0.390456 8.08394 17.3628
44 1 1 0 1 -4.18955 9.6551 16.5533
45 1 1 0 1 -9.12578 3.92297 4.545
46 1 1 0 1 -3.40915 3.59254 8.86329
47 1 1 0 1 0.0171361 -0.801318 -0.415781
48 1 1 0 1 -9.6621 10.8427 4.29312
49 1 1 0 1 -5.37311 4.15284 -0.300809
50 1 1 0 1 -4.79177 3.28409 0.189682
51 1 1 0 1 -0.690869 1.66071 0.417258
52 1 1 0 1 -1.40552 2.02539 12.9695
53 1 1 0 1 -4.27333 -1.96151 3.42935
54 1 1 0 1 -5.72348 -0.691311 18.7855
55 1 1 0 1 -4.40485 1.58383 12.002
56 1 1 0 1 -0.336478 2.57279 8.29611
57 1 1 0 1 -4.26036 13.0858 18.2693
58 1 1 0 1 -4.55589 10.3515 13.4311
59 1 1 0 1 -6.87947 4.04423 10.5286
60 1 1 0 1 0.674093 2.15412 22.7887
61 1 1 0 1 -5.7907 7.94235 13.9627
62 1 1 0 1 2.63571 1.92566 23.706
63 1 1 0 1 0.558158 8.45898 3.9007
64 1 1 0 1 0.38834 -0.904317 13.5203
65 1 1 0 1 -9.94974 0.213336 17.5707
66 1 1 0 1 -4.54951 7.36251 24.4088
67 1 1 0 1 -3.89931 -4.3668 -3.69989
68 1 1 0 1 -7.24883 3.98029 -8.04956
69 1 1 0 1 -2.35419 6.28642 0.872923
70 1 1 0 1 0.984715 13.1828 1.94634
71 1 1 0 1 2.84036 0.170544 3.75504
72 1 1 0 1 -14.3774 4.49299 0.269622
73 1 1 0 1 0.765378 2.41846 7.05942
74 1 1 0 1 -3.88932 2.58699 13.9674
75 1 1 0 1 -1.2335 1.8261 7.74351
76 1 1 0 1 -1.60063 -1.76007 8.31498
77 1 1 0 1 -7.37403 -2.09483 7.51366
78 1 1 0 1 -2.38665 7.62157 11.2383
79 1 1 0 1 -2.99314 2.15603 14.001
80 1 1 0 1 1.21168 -1.83755 15.14
81 1 1 0 1 -2.09899 8.67179 19.1845
82 1 1 0 1 -3.08431 -4.11226 10.9338
83 1 1 0 1 -5.35282 0.182661 19.1286
84 1 1 0 1 5.04534 4.87319 16.7146
85 1 1 0 1 -5.49583 -1.81745 23.2139
86 1 1 0 1 -3.57933 -1.7368 20.055
87 1 1 0 1 1.01192 5.58548 22.6156
88 1 1 0 1 -1.90772 7.62958 21.084
89 1 1 0 1 -4.60296 9.43009 1.06131
90 1 1 0 1 0.317787 12.2638 9.70445
91 1 1 0 1 -2.49378 -1.81284 7.68256
92 1 1 0 1 0.0638134 9.70305 3.99563
93 1 1 0 1 2.92033 9.22677 4.21181
94 1 1 0 1 -2.47595 -3.2679 2.25982
95 1 1 0 1 -4.85897 7.70192 9.10155
96 1 1 0 1 1.33517 4.45374 3.70046
97 1 1 0 1 -5.49261 10.7627 11.5514
98 1 1 0 1 -0.537431 7.75998 6.39191
99 1 1 0 1 -4.83722 6.62741 5.60684
100 1 1 0 1 0.249797 1.31977 3.51479
101 1 1 0 1 -4.91356 2.35303 7.60442
102 1 1 0 1 -4.79135 3.90762 10.6328
103 1 1 0 1 -4.16255 8.58966 10.6164
104 1 1 0 1 -3.70758 13.4386 12.324
105 1 1 0 1 -2.1366 4.09529 2.32099
106 1 1 0 1 -0.522935 5.86127 20.5111
107 1 1 0 1 -8.19063 7.0871 15.1664
108 1 1 0 1 0.118265 5.90668 13.6966
109 1 1 0 1 -7.81875 3.06251 23.8704
110 1 1 0 1 -7.09262 6.05972 23.0774
111 1 1 0 1 -3.82184 3.97256 4.02878
112 1 1 0 1 -3.19295 8.4084 -4.39421
113 1 1 0 1 -1.51239 7.06856 17.0027
114 1 1 0 1 0.0795044 5.69797 5.38756
115 1 1 0 1 -7.54436 10.1655 1.50056
116 1 1 0 1 -2.99984 12.2277 9.25575
117 1 1 0 1 -5.61639 8.86308 3.30704
118 1 1 0 1 -3.2577 4.20196 5.7907
119 1 1 0 1 -3.15915 7.98947 10.7266
120 1 1 0 1 -2.40601 2.25534 7.9765
121 1 1 0 1 1.06947 2.21229 5.35789
122 1 1 0 1 2.78715 4.51019 6.72087
123 1 1 0 1 -4.49206 4.30328 11.8728
124 1 1 0 1 -5.74391 11.1271 13.7052
125 1 1 0 1 -10.1687 8.76372 8.38064
126 1 1 0 1 -5.27567 6.15499 20.0595
127 1 1 0 1 -1.09207 8.65145 16.088
128 1 1 0 1 -9.96528 8.82679 10.7025
129 1 1 0 1 -2.77663 6.67643 24.8254
130 1 1 0 1 -4.73646 8.0467 13.9184
131 1 1 0 1 -9.63992 0.727777 8.05237
132 1 1 0 1 -6.3251 5.30233 28.2704
133 1 1 0 1 0.786495 6.47065 3.81888
134 1 1 0 1 -7.88419 5.92797 10.4449
135 1 1 0 1 -7.2191 0.536906 1.19068
136 1 1 0 1 -1.26674 12.2824 1.25668
137 1 1 0 1 -10.4976 3.90409 9.43726
138 1 1 0 1 -10.3971 7.68766 12.2472
139 1 1 0 1 2.76122 6.80235 4.11958
140 1 1 0 1 -8.37338 8.62222 2.96913
141 1 1 0 1 2.31193 4.73023 -0.65549
142 1 1 0 1 -5.40045 4.24377 8.23348
143 1 1 0 1 -1.67642 1.88258 10.4506
144 1 1 0 1 3.5113 2.6156 9.38879
145 1 1 0 1 -9.97395 5.62483 19.5359
146 1 1 0 1 -9.54391 11.4802 22.8824
147 1 1 0 1 -0.872027 20.6738 17.2049
148 1 1 0 1 -8.8542 13.9702 12.3956
149 1 1 0 1 -10.3488 3.13846 19.5323
150 1 1 0 1 -6.27449 9.24164 7.70977
151 1 1 0 1 -6.06116 1.22062 21.5797
152 1 1 0 1 -5.52643 -0.306113 17.6068
153 1 1 0 1 -3.87436 10.0378 21.4722
154 1 1 0 1 -5.1421 4.63098 27.8507
155 1 1 0 1 -3.50642 5.49931 -3.6868
156 1 1 0 1 0.213339 7.99168 -0.990747
157 1 1 0 1 -5.54691 10.5019 5.28604
158 1 1 0 1 -3.75709 12.9504 2.84021
159 1 1 0 1 -2.59741 8.49217 1.45247
160 1 1 0 1 -6.39207 4.46046 5.5973
161 1 1 0 1 -1.15782 13.496 6.42169
162 1 1 0 1 -3.1273 8.82445 13.0177
163 1 1 0 1 4.01924 10.0741 4.61428
164 1 1 0 1 -10.8717 5.76948 11.0172
165 1 1 0 1 -0.331178 2.1601 14.4966
166 1 1 0 1 -2.7212 11.6498 19.4623
167 1 1 0 1 -4.97287 15.2137 18.0467
168 1 1 0 1 -9.72176 4.22625 22.0465
169 1 1 0 1 -7.94424 14.0733 14.9839
170 1 1 0 1 3.05955 9.34691 21.5753
171 1 1 0 1 -3.14267 13.2521 27.893
172 1 1 0 1 -1.16941 9.22645 18.3868
173 1 1 0 1 -0.776416 6.10843 17.4463
174 1 1 0 1 6.68769 6.41849 20.8471
175 1 1 0 1 -5.09991 6.82141 19.1717
176 1 1 0 1 0.0673607 3.52715 26.1576
177 1 1 0 1 -6.00784 6.40179 1.75854
178 1 1 0 1 -0.0638974 16.5089 11.2682
179 1 1 0 1 -8.73127 13.9963 0.838482
180 1 1 0 1 -1.77619 17.2099 0.833613
181 1 1 0 1 -6.88972 15.5033 2.9676
182 1 1 0 1 -7.34257 14.8139 7.03073
183 1 1 0 1 -5.72966 12.6051 6.03271
184 1 1 0 1 -5.26626 7.43737 8.20406
185 1 1 0 1 -6.83584 0.726914 8.14418
186 1 1 0 1 -13.7061 15.7164 8.26717
187 1 1 0 1 -8.67839 16.5276 12.5847
188 1 1 0 1 -1.0685 0.888687 10.2516
189 1 1 0 1 -2.73054 12.3467 18.4459
190 1 1 0 1 -7.01635 6.2169 14.2178
191 1 1 0 1 -5.46537 9.3739 22.2423
192 1 1 0 1 -3.23743 7.29154 14.9063
193 1 1 0 1 -4.00671 4.76906 20.2212
194 1 1 0 1 7.91227 10.8819 18.1191
195 1 1 0 1 -6.53861 6.16485 13.2326
196 1 1 0 1 1.07273 8.40686 21.3769
197 1 1 0 1 -3.69219 5.67203 19.7824
198 1 1 0 1 9.81821 9.27856 25.5903
199 1 1 0 1 -0.070078 12.4795 2.06956
200 1 1 0 1 4.13682 9.16005 7.28251
201 1 1 0 1 -4.51878 14.5818 -1.82973
202 1 1 0 1 -1.48923 3.48967 6.20643
203 1 1 0 1 -7.74419 10.6306 7.67592
204 1 1 0 1 -2.37508 7.69164 14.5409
205 1 1 0 1 2.42197 6.03298 1.98614
206 1 1 0 1 2.45356 11.1331 6.66333
207 1 1 0 1 -2.23088 9.71193 0.82356
208 1 1 0 1 -1.67706 2.75195 12.4243
209 1 1 0 1 -1.87575 0.706366 2.13118
210 1 1 0 1 -6.81707 8.27489 7.26195
211 1 1 0 1 -2.49855 8.47895 7.18527
212 1 1 0 1 -10.4552 10.5883 13.1
213 1 1 0 1 -1.30585 11.1314 25.5531
214 1 1 0 1 -15.2323 20.1859 17.8816
215 1 1 0 1 -7.05967 14.1353 15.6422
216 1 1 0 1 -6.50577 11.5488 19.1842
217 1 1 0 1 -9.53275 14.0615 27.0037
218 1 1 0 1 2.21292 8.14755 24.8486
219 1 1 0 1 4.13397 10.7596 24.7239
220 1 1 0 1 6.11088 14.1118 22.4052
221 1 1 0 1 8.98264 9.13574 -1.90922
222 1 1 0 1 -6.49963 13.8328 0.120179
223 1 1 0 1 -9.27666 10.0968 1.14504
224 1 1 0 1 -6.44122 10.3133 -4.73233
225 1 1 0 1 -7.4582 18.6917 4.05835
226 1 1 0 1 -13.9782 10.6731 9.87946
227 1 1 0 1 -11.471 14.3453 7.22121
228 1 1 0 1 -10.3666 17.9687 0.236986
229 1 1 0 1 1.43682 10.9322 8.68763
230 1 1 0 1 -2.0921 14.7058 8.03652
231 1 1 0 1 -6.33203 10.3409 12.0672
232 1 1 0 1 0.469523 2.35061 13.0304
233 1 1 0 1 -0.489612 14.0455 15.8836
234 1 1 0 1 -11.8285 11.8594 10.5382
235 1 1 0 1 -5.56881 13.5793 17.29
236 1 1 0 1 -7.5254 14.0141 13.1046
237 1 1 0 1 -10.8175 15.8737 16.5989
238 1 1 0 1 -6.74051 9.2409 15.1717
239 1 1 0 1 -4.36401 9.10848 15.2036
240 1 1 0 1 -4.97925 13.1996 12.0728
241 1 1 0 1 -3.15391 6.63478 17.7203
242 1 1 0 1 -3.87188 2.88649 21.1046
243 1 1 0 1 -4.05829 11.1551 -1.32318
244 1 1 0 1 -4.13002 9.51852 -3.1076
245 1 1 0 1 -5.4118 17.5065 1.10402
246 1 1 0 1 -0.824005 11.9788 3.86173
247 1 1 0 1 -5.21149 11.612 6.78547
248 1 1 0 1 -1.37276 -3.42832 6.61744
249 1 1 0 1 -9.94719 12.1495 8.11419
250 1 1 0 1 -1.6509 5.99245 4.54448
251 1 1 0 1 -5.41151 7.91649 5.27461
252 1 1 0 1 -0.583806 1.96713 6.91897
253 1 1 0 1 0.732099 -1.00326 18.9487
254 1 1 0 1 0.351722 10.9276 16.8337
255 1 1 0 1 -7.50945 2.90483 9.23422
256 1 1 0 1 -9.05418 19.0048 12.0369
257 1 1 0 1 3.29005 17.0171 20.0787
258 1 1 0 1 2.3732 12.1336 17.8712
259 1 1 0 1 -6.99249 12.2268 21.486
260 1 1 0 1 -2.35151 13.8748 17.7955
261 1 1 0 1 -2.30909 7.18167 19.2566
262 1 1 0 1 -3.0963 8.97519 19.8922
263 1 1 0 1 2.61875 14.8853 21.5017
264 1 1 0 1 -1.37017 15.4703 23.4912
265 1 1 0 1 -4.43097 11.409 0.135013
266 1 1 0 1 7.72891 18.6419 2.60204
267 1 1 0 1 0.476333 16.1009 8.78682
268 1 1 0 1 -1.58793 5.67612 -2.7774
269 1 1 0 1 -0.42654 11.1568 11.5008
270 1 1 0 1 -0.545471 15.4117 -1.33402
271 1 1 0 1 -7.55424 5.9801 9.32388
272 1 1 0 1 -6.6944 8.37184 14.8063
273 1 1 0 1 -2.09022 13.5225 6.77871
274 1 1 0 1 -12.7816 7.64637 9.1404
275 1 1 0 1 -7.32426 2.97276 10.6818
276 1 1 0 1 -0.56969 13.3857 10.3367
277 1 1 0 1 -5.43733 9.02976 13.6425
278 1 1 0 1 -0.4713 14.7265 18.0766
279 1 1 0 1 -3.92288 18.3643 12.0485
280 1 1 0 1 -7.87768 14.1326 9.58465
281 1 1 0 1 1.44619 11.3725 29.065
282 1 1 0 1 -3.20428 14.224 10.364
283 1 1 0 1 -2.45975 13.7681 14.8354
284 1 1 0 1 -7.23972 13.4524 14.6568
285 1 1 0 1 -6.40701 1.70347 16.8627
286 1 1 0 1 -1.90958 10.3479 21.9168
287 1 1 0 1 -8.87362 23.4113 5.86571
288 1 1 0 1 -4.41316 13.7591 -0.0655072
289 1 1 0 1 -7.83072 3.2604 5.67642
290 1 1 0 1 -3.37315 11.1863 7.88123
291 1 1 0 1 -7.93716 -1.65469 9.26279
292 1 1 0 1 -5.50562 13.4108 10.7522
293 1 1 0 1 -1.11745 8.24005 8.24109
294 1 1 0 1 -1.07065 15.1602 8.21998
295 1 1 0 1 -5.0767 7.0727 9.93319
296 1 1 0 1 0.305283 11.3152 15.7422
297 1 1 0 1 -7.13346 12.3526 7.28704
298 1 1 0 1 -8.17023 2.59006 18.5822
299 1 1 0 1 3.02869 18.1573 13.8792
300 1 1 0 1 2.79171 20.6831 20.4289
301 1 1 0 1 -2.31202 17.1578 19.0855
302 1 1 0 1 -4.59798 15.3865 16.71
303 1 1 0 1 -10.0335 16.7549 10.8413
304 1 1 0 1 -0.399017 8.25858 12.0393
305 1 1 0 1 6.97102 10.4127 22.0835
306 1 1 0 1 -2.48078 14.1225 20.6816
307 1 1 0 1 2.2642 17.3418 20.429
308 1 1 0 1 4.01418 29.6311 26.0791
309 1 1 0 1 1.30064 13.5167 3.94181
310 1 1 0 1 3.07875 14.6912 7.90189
311 1 1 0 1 -11.7068 12.2803 -3.29579
312 1 1 0 1 -7.31804 6.15284 4.38811
313 1 1 0 1 -10.3936 14.4962 1.51318
314 1 1 0 1 -0.787362 11.3345 1.70835
315 1 1 0 1 2.19656 9.86741 6.98597
316 1 1 0 1 -9.34344 19.0482 7.00213
317 1 1 0 1 -4.56422 13.8944 10.8443
318 1 1 0 1 -3.67849 16.9599 10.665
319 1 1 0 1 -3.67554 10.8591 10.462
320 1 1 0 1 2.4074 18.6425 6.60035
321 1 1 0 1 -5.00274 14.9995 14.322
322 1 1 0 1 -0.516171 10.5837 19.3981
323 1 1 0 1 -2.93473 16.3189 8.64797
324 1 1 0 1 -0.642398 11.5423 5.48556
325 1 1 0 1 0.817251 11.8665 8.45564
326 1 1 0 1 -5.0691 17.0986 16.854
327 1 1 0 1 -8.39716 12.0881 18.2681
328 1 1 0 1 1.06892 16.5688 22.8144
329 1 1 0 1 -0.143288 12.2276 23.1137
330 1 1 0 1 6.41511 14.9267 21.5847
331 1 1 0 1 -5.14353 11.7548 9.32901
332 1 1 0 1 -2.99958 19.1063 3.28243
333 1 1 0 1 -0.512961 8.54406 7.34491
334 1 1 0 1 -4.50933 16.5385 2.18774
335 1 1 0 1 -0.676643 11.9786 10.9817
336 1 1 0 1 -8.54379 14.3875 3.233
337 1 1 0 1 -4.19187 13.4347 4.54962
338 1 1 0 1 -2.95511 9.23441 8.58413
339 1 1 0 1 -11.4276 12.9782 5.20025
340 1 1 0 1 -4.0425 9.74167 10.4154
341 1 1 0 1 -3.72937 9.69514 5.0717
342 1 1 0 1 -2.07757 16.9968 9.36819
343 1 1 0 1 -1.61958 10.4623 7.51118
344 1 1 0 1 -7.71518 7.89522 11.4022
345 1 1 0 1 -5.44805 19.1209 14.8479
346 1 1 0 1 1.40835 17.7366 19.9688
347 1 1 0 1 -0.697255 20.931 18.4621
348 1 1 0 1 -5.26267 12.0713 19.1568
349 1 1 0 1 0.143271 20.607 17.6187
350 1 1 0 1 -0.793894 18.4458 16.6268
351 1 1 0 1 -8.76084 20.3361 19.7872
352 1 1 0 1 -1.09969 17.7955 29.3973
353 1 1 0 1 -9.80435 18.8274 -1.23281
354 1 1 0 1 2.17343 17.5652 3.2245
355 1 1 0 1 -7.25589 9.2101 6.60408
356 1 1 0 1 -6.63226 10.4389 5.06501
357 1 1 0 1 0.254428 14.6101 1.29622
358 1 1 0 1 -3.76992 14.0596 5.3761
359 1 1 0 1 -10.9871 12.173 14.5775
360 1 1 0 1 -0.521096 13.5525 5.06288
361 1 1 0 1 0.498409 17.8181 10.4091
362 1 1 0 1 -1.03161 12.1327 12.2597
363 1 1 0 1 1.30998 11.9366 10.7852
364 1 1 0 1 3.46119 9.91793 7.62931
365 1 1 0 1 -2.06183 3.17223 7.24468
366 1 1 0 1 -5.4213 16.43 11.1324
367 1 1 0 1 0.410775 9.22142 14.1215
368 1 1 0 1 -2.7157 21.3924 15.4439
369 1 1 0 1 -2.28073 13.403 11.1065
370 1 1 0 1 -4.2714 5.96518 7.80754
371 1 1 0 1 -7.09899 17.926 25.1649
372 1 1 0 1 -3.44419 15.1368 21.7955
373 1 1 0 1 -4.73876 14.5476 16.0562
374 1 1 0 1 -2.78522 15.0169 29.4195
375 1 1 0 1 -7.83292 3.98602 8.58495
376 1 1 0 1 -7.72045 16.2238 -0.0399254
377 1 1 0 1 -10.3338 12.249 0.952956
378 1 1 0 1 -9.22884 14.6524 6.62904
379 1 1 0 1 -0.890854 15.3541 -4.86576
380 1 1 0 1 -3.44573 12.9305 3.91197
381 1 1 0 1 -7.60673 16.1682 6.76968
382 1 1 0 1 -12.799 16.1735 15.6029
383 1 1 0 1 -3.41231 19.1109 11.2227
384 1 1 0 1 1.78008 9.75436 13.794
385 1 1 0 1 -6.42938 16.1838 8.52302
386 1 1 0 1 -4.29857 11.5067 9.91297
387 1 1 0 1 -5.50844 13.1957 15.3472
388 1 1 0 1 -4.70926 17.6811 15.7935
389 1 1 0 1 -3.72156 21.3783 17.4882
390 1 1 0 1 -1.68313 14.9186 18.1369
391 1 1 0 1 -4.97868 24.1701 22.1339
392 1 1 0 1 -7.00279 18.0917 6.57501
393 1 1 0 1 -4.39323 10.7942 12.149
394 1 1 0 1 -2.85332 18.3228 21.8754
395 1 1 0 1 -12.0855 11.35 13.3461
396 1 1 0 1 -0.346201 10.6098 25.183
397 1 1 0 1 -3.6664 17.6189 0.462855
398 1 1 0 1 -2.73761 25.7896 0.568472
399 1 1 0 1 -3.19605 14.9862 2.17803
400 1 1 0 1 -7.01522 12.0182 6.24995
401 1 1 0 1 -1.10411 11.9627 13.6416
402 1 1 0 1 -6.10812 13.0567 11.8048
403 1 1 0 1 6.24174 15.3502 10.8235
404 1 1 0 1 -3.84808 26.7351 4.60795
405 1 1 0 1 -12.0886 14.7019 8.21124
406 1 1 0 1 -7.70387 18.0825 5.63701
407 1 1 0 1 -3.21279 15.642 3.87057
408 1 1 0 1 -8.35953 19.3301 11.3048
409 1 1 0 1 -9.05712 10.0043 14.755
410 1 1 0 1 -6.72156 4.35567 9.25061
411 1 1 0 1 6.25716 17.8538 7.86724
412 1 1 0 1 -10.3041 14.3732 4.25676
413 1 1 0 1 -8.92794 15.1202 16.6544
414 1 1 0 1 -6.38185 9.05825 19.0857
415 1 1 0 1 -0.412664 16.3759 28.0824
416 1 1 0 1 -4.59039 14.6792 29.6166
417 1 1 0 1 1.7444 21.2145 22.8856
418 1 1 0 1 0.324896 16.4353 26.1628
419 1 1 0 1 -7.10588 16.8438 3.9029
420 1 1 0 1 -1.69904 24.7794 16.4642
421 1 1 0 1 -6.16208 17.6532 5.13084
422 1 1 0 1 -2.52916 3.31976 6.32433
423 1 1 0 1 -1.79698 26.7708 6.99296
424 1 1 0 1 -1.82517 14.9218 11.8891
425 1 1 0 1 -2.55754 12.6218 3.32214
426 1 1 0 1 -4.91128 22.1193 -7.47409
427 1 1 0 1 -4.04234 20.8296 7.17455
428 1 1 0 1 2.59986 14.6607 2.76176
429 1 1 0 1 -7.34121 24.5857 5.11119
430 1 1 0 1 -1.27447 16.592 8.01733
431 1 1 0 1 -8.90115 15.6682 13.5107
432 1 1 0 1 0.463297 28.2487 9.12063
433 1 1 0 1 -3.66681 20.1608 15.3125
434 1 1 0 1 -3.59748 3.44162 12.5209
435 1 1 0 1 -5.72345 11.856 21.9851
436 1 1 0 1 -8.54722 14.661 13.4456
437 1 1 0 1 -5.35378 21.4067 15.2486
438 1 1 0 1 -4.34194 16.6407 18.1661
439 1 1 0 1 -2.70607 21.8152 19.8692
440 1 1 0 1 -5.046 12.8834 22.0116
441 1 1 0 1 -4.07798 16.1837 -2.00672
442 1 1 0 1 -5.37552 20.135 3.24394
443 1 1 0 1 -2.34446 15.7466 -3.09834
444 1 1 0 1 -1.2482 25.1205 0.866109
445 1 1 0 1 -8.38397 17.1945 4.36372
446 1 1 0 1 1.37527 5.84348 10.5887
447 1 1 0 1 -1.87738 9.45977 7.2692
448 1 1 0 1 -6.9574 17.8274 10.2868
449 1 1 0 1 -1.58264 19.9099 11.7667
450 1 1 0 1 -4.95566 11.4561 21.1655
451 1 1 0 1 -9.89391 16.3739 13.2203
452 1 1 0 1 -6.71865 18.4363 20.4127
453 1 1 0 1 -6.30319 17.2016 16.8713
454 1 1 0 1 0.24497 23.5703 15.6082
455 1 1 0 1 -2.63356 3.58623 4.29058
456 1 1 0 1 -4.59057 17.2426 12.0896
457 1 1 0 1 -5.77909 21.3719 12.1441
458 1 1 0 1 -10.8329 16.5805 13.4372
459 1 1 0 1 -5.89561 16.7906 15.8046
460 1 1 0 1 -3.0344 15.4183 19.6655
461 1 1 0 1 -0.784174 18.6369 13.0157
462 1 1 0 1 5.60151 24.3561 23.2636
463 1 1 0 1 0.96262 19.7667 -2.35104
464 1 1 0 1 -2.89909 22.5352 9.66153
465 1 1 0 1 8.76943 25.1357 1.64938
466 1 1 0 1 0.712455 30.8466 1.34227
467 1 1 0 1 -6.26656 19.9471 10.4398
468 1 1 0 1 -3.30187 21.7402 4.32696
469 1 1 0 1 0.502568 15.631 13.7689
470 1 1 0 1 -0.855598 21.4033 9.64654
471 1 1 0 1 -2.26422 7.37844 5.04696
472 1 1 0 1 3.72551 30.0691 15.4446
473 1 1 0 1 -8.01618 19.1269 9.47758
474 1 1 0 1 3.15833 14.5908 12.9541
475 1 1 0 1 0.739063 18.1252 17.0709
476 1 1 0 1 1.31074 26.9028 20.5245
477 1 1 0 1 1.82685 21.1117 14.2095
478 1 1 0 1 5.39967 24.5541 15.8541
479 1 1 0 1 -6.84114 29.6684 10.4001
480 1 1 0 1 1.51847 21.5775 19.3402
481 1 1 0 1 -1.68381 20.0033 15.6887
482 1 1 0 1 -3.07159 31.1695 18.4621
483 1 1 0 1 3.22707 17.1097 27.0449
484 1 1 0 1 -2.77365 20.1723 22.7261
485 1 1 0 1 -2.91521 -9.60826 0.52278
486 1 1 0 1 -3.31662 9.259 -6.43081
487 1 1 0 1 -0.217267 2.99863 -0.0982645
488 1 1 0 1 -3.9559 -0.992767 2.79042
489 1 1 0 1 0.410585 0.263077 -4.59722
490 1 1 0 1 -9.01929 -0.772085 5.6302
491 1 1 0 1 -7.07834 3.92072 4.96235
492 1 1 0 1 0.105241 -11.8207 14.2113
493 1 1 0 1 1.47787 -2.01474 11.4325
494 1 1 0 1 -6.08635 0.511296 4.60627
495 1 1 0 1 -7.56918 -1.56719 15.8118
496 1 1 0 1 -0.471359 6.35662 19.4753
497 1 1 0 1 -0.612522 -6.44994 16.1132
498 1 1 0 1 -0.623661 6.25807 12.8069
499 1 1 0 1 -1.54215 7.0718 10.606
500 1 1 0 1 -4.80621 -4.26127 13.1057
501 1 1 0 1 1.54233 -0.147541 7.48935
502 1 1 0 1 1.21221 -9.37493 17.3271
503 1 1 0 1 -2.04413 6.79266 14.1766
504 1 1 0 1 -0.388792 -2.10175 9.96755
505 1 1 0 1 -3.31323 -1.91714 13.8044
506 1 1 0 1 -1.86148 6.20769 17.4768
507 1 1 0 1 -1.86804 4.64294 -2.82109
508 1 1 0 1 -1.92983 3.47521 1.50356
509 1 1 0 1 -4.95828 5.12167 3.02717
510 1 1 0 1 -7.09803 -4.42268 -1.02908
511 1 1 0 1 5.7644 1.10532 6.50406
512 1 1 0 1 -5.04334 13.0856 6.73531
513 1 1 0 1 -2.52652 -2.98555 7.21844
514 1 1 0 1 -2.53944 -0.801798 0.730319
515 1 1 0 1 8.3553 7.99511 3.42662
516 1 1 0 1 -6.88547 6.65632 10.1121
517 1 1 0 1 -2.91413 -0.780762 7.64905
518 1 1 0 1 0.397287 2.40499 4.35714
519 1 1 0 1 3.99456 0.679427 18.7119
520 1 1 0 1 1.39103 -5.64794 6.97446
521 1 1 0 1 -3.36668 4.31991 13.2737
522 1 1 0 1 -5.70018 9.4438 11.1271
523 1 1 0 1 1.24344 1.12788 18.1676
524 1 1 0 1 -0.737976 3.9195 15.3162
525 1 1 0 1 -0.899737 1.1184 24.8887
526 1 1 0 1 0.347699 -3.50028 24.3933
527 1 1 0 1 -2.33345 8.05978 20.1472
528 1 1 0 1 3.27804 3.37645 23.1812
529 1 1 0 1 8.80198 13.0243 7.58961
530 1 1 0 1 3.18951 -3.05553 -4.55841
531 1 1 0 1 5.19888 12.2006 -2.98348
532 1 1 0 1 -1.22643 -7.52273 3.97941
533 1 1 0 1 -4.4984 7.18496 -4.76017
534 1 1 0 1 -1.35058 0.143584 2.77212
535 1 1 0 1 3.34485 7.18179 0.100026
536 1 1 0 1 -5.58583 11.3189 1.65478
537 1 1 0 1 2.25444 1.61478 9.01377
538 1 1 0 1 -2.40293 -1.57794 13.2155
539 1 1 0 1 -0.813799 6.22641 10.6285
540 1 1 0 1 0.675788 7.28733 9.57664
541 1 1 0 1 -5.28915 8.18919 11.4198
542 1 1 0 1 -3.78301 8.48016 12.0286
543 1 1 0 1 -4.48052 7.3502 4.75418
544 1 1 0 1 -2.06198 7.47862 6.91193
545 1 1 0 1 2.41941 8.27918 13.7555
546 1 1 0 1 -1.69156 -2.54772 12.8814
547 1 1 0 1 -0.94457 -1.33611 19.5381
548 1 1 0 1 -0.972965 4.53099 27.873
549 1 1 0 1 2.23441 5.22946 26.2288
550 1 1 0 1 -4.41337 8.76163 21.3017
551 1 1 0 1 -3.22576 5.6337 -5.63737
552 1 1 0 1 -5.08354 2.19692 -5.89872
553 1 1 0 1 0.487836 7.75866 2.12281
554 1 1 0 1 3.09771 5.18676 -1.57762
555 1 1 0 1 -3.18704 4.68672 -6.17552
556 1 1 0 1 -2.11413 0.992026 3.44948
557 1 1 0 1 2.92309 11.0031 0.862011
558 1 1 0 1 1.51591 2.9857 6.52314
559 1 1 0 1 -0.218037 -2.52319 12.2011
560 1 1 0 1 -3.51489 -2.38063 1.17111
561 1 1 0 1 0.94253 4.40626 15.1296
562 1 1 0 1 4.47976 5.42087 20.8316
563 1 1 0 1 -0.70451 2.06607 17.4834
564 1 1 0 1 -4.16405 -5.59705 7.74689
565 1 1 0 1 6.40467 7.76151 19.238
566 1 1 0 1 3.31497 3.68971 12.0223
567 1 1 0 1 -4.48183 3.68009 17.5657
568 1 1 0 1 5.25308 6.84374 14.7193
569 1 1 0 1 0.790712 4.43043 17.2912
570 1 1 0 1 -3.64787 6.8423 26.7294
571 1 1 0 1 5.28458 6.28402 21.6036
572 1 1 0 1 0.722802 3.43746 21.8411
573 1 1 0 1 0.529694 6.39526 -4.41031
574 1 1 0 1 -3.93024 2.13763 5.04658
575 1 1 0 1 -6.81489 3.38866 -7.22146
576 1 1 0 1 -0.859899 8.06233 -0.796421
577 1 1 0 1 -5.81941 1.3675 5.43697
578 1 1 0 1 -4.20772 12.5966 11.8908
579 1 1 0 1 -4.70293 2.55431 2.70519
580 1 1 0 1 -3.04403 0.483831 10.6483
581 1 1 0 1 -2.48285 9.94249 12.1097
582 1 1 0 1 -0.352265 3.82451 8.77308
583 1 1 0 1 -9.16956 9.82374 10.7751
584 1 1 0 1 -3.80253 8.15203 15.2502
585 1 1 0 1 -6.01392 1.41202 12.2488
586 1 1 0 1 -1.28439 14.0914 16.9511
587 1 1 0 1 -3.13917 14.8933 14.5843
588 1 1 0 1 -4.49778 2.35947 17.7152
589 1 1 0 1 -7.95911 3.07213 16.6099
590 1 1 0 1 -5.57316 4.74844 13.7578
591 1 1 0 1 -5.66733 4.51406 9.17093
592 1 1 0 1 -2.72109 0.240945 17.8511
593 1 1 0 1 -0.161884 6.08098 16.0867
594 1 1 0 1 -7.58912 -2.41297 21.3546
595 1 1 0 1 1.84735 0.739928 -2.73964
596 1 1 0 1 -0.0394894 9.84597 5.12078
597 1 1 0 1 -7.82202 1.57485 5.83655
598 1 1 0 1 0.227393 7.03182 1.28539
599 1 1 0 1 -1.28251 11.2911 0.539189
600 1 1 0 1 0.936957 6.10099 6.08035
601 1 1 0 1 -6.52834 7.30276 5.00577
602 1 1 0 1 -1.43684 -3.8276 4.01389
603 1 1 0 1 1.39557 -6.64579 17.4495
604 1 1 0 1 11.4976 8.38276 14.9475
605 1 1 0 1 -3.4766 8.75105 7.60874
606 1 1 0 1 -8.07814 -1.82948 13.9269
607 1 1 0 1 -5.73856 4.32601 6.67765
608 1 1 0 1 0.037112 -3.2697 8.48287
609 1 1 0 1 5.96257 8.11626 13.0588
610 1 1 0 1 0.155515 7.54929 10.6508
611 1 1 0 1 -1.75266 6.11624 10.0996
612 1 1 0 1 0.813995 3.28039 25.3223
613 1 1 0 1 2.29032 2.90195 16.0611
614 1 1 0 1 -2.09669 10.2851 24.6902
615 1 1 0 1 -9.67236 5.41687 17.6874
616 1 1 0 1 -4.84662 9.43953 17.3354
617 1 1 0 1 0.681753 0.293716 -2.4532
618 1 1 0 1 -8.85695 5.04368 3.97539
619 1 1 0 1 1.23676 17.9324 3.81194
620 1 1 0 1 1.34079 9.05767 5.39825
621 1 1 0 1 -1.90669 5.34306 5.53614
622 1 1 0 1 -7.30558 2.12009 1.44349
623 1 1 0 1 -1.06558 6.8578 4.6855
624 1 1 0 1 -3.98321 3.45055 3.03662
625 1 1 0 1 -3.2809 2.58566 4.1769
626 1 1 0 1 0.953889 6.79896 10.6224
627 1 1 0 1 -7.93801 -3.97661 16.9046
628 1 1 0 1 6.50336 -2.27256 7.25298
629 1 1 0 1 1.41962 11.493 19.3417
630 1 1 0 1 3.19536 11.7989 16.8591
631 1 1 0 1 1.49037 8.78592 13.7514
632 1 1 0 1 6.78844 7.23752 15.9484
633 1 1 0 1 -7.67509 8.92294 14.7408
634 1 1 0 1 0.88718 6.43528 14.8252
635 1 1 0 1 2.1257 1.63425 18.1795
636 1 1 0 1 1.59712 2.77688 16.8828
637 1 1 0 1 -7.53233 5.59027 20.8431
638 1 1 0 1 0.0417811 4.387 23.4359
639 1 1 0 1 -1.97566 -1.61648 6.62758
640 1 1 0 1 -3.23758 13.227 7.11509
641 1 1 0 1 9.27081 7.99036 1.46427
642 1 1 0 1 0.440972 13.9667 8.99387
643 1 1 0 1 2.02792 14.4544 11.3502
644 1 1 0 1 -5.10038 6.7929 1.49038
645 1 1 0 1 -0.827121 3.88586 6.98809
646 1 1 0 1 -0.449296 7.07134 7.50304
647 1 1 0 1 -5.87083 11.6007 -3.69568
648 1 1 0 1 -3.3618 12.412 12.5874
649 1 1 0 1 -3.64677 8.42179 5.93266
650 1 1 0 1 5.18463 2.50747 14.182
651 1 1 0 1 1.78407 8.59191 7.98254
652 1 1 0 1 -3.23387 16.3376 18.0094
653 1 1 0 1 -1.81717 17.9934 13.7919
654 1 1 0 1 -0.11418 8.29936 20.0413
655 1 1 0 1 -0.13777 6.16699 3.187
656 1 1 0 1 -4.5504 3.51457 13.8934
657 1 1 0 1 2.25961 7.49333 18.4872
658 1 1 0 1 1.48426 11.7494 25.0458
659 1 1 0 1 -4.12894 5.88117 14.7515
660 1 1 0 1 3.31556 7.44653 21.0543
661 1 1 0 1 -0.376063 8.91184 1.87493
662 1 1 0 1 1.81695 8.17603 -1.63138
663 1 1 0 1 -3.25161 7.95175 2.06373
664 1 1 0 1 -1.64171 9.62809 5.65694
665 1 1 0 1 -9.18087 0.444737 5.31351
666 1 1 0 1 8.31278 9.63507 10.5613
667 1 1 0 1 -4.63334 5.85524 -3.29738
668 1 1 0 1 -7.60199 5.20033 2.03793
669 1 1 0 1 6.0125 4.64673 2.62854
670 1 1 0 1 -2.92989 6.90164 7.27116
671 1 1 0 1 3.87205 2.5819 3.20027
672 1 1 0 1 -0.742784 17.4944 17.1375
673 1 1 0 1 -5.49802 15.8576 14.2782
674 1 1 0 1 0.358137 14.2317 16.5132
675 1 1 0 1 -1.7918 10.9561 20.6608
676 1 1 0 1 -4.98851 0.448852 17.0261
677 1 1 0 1 -2.53723 7.55347 17.7523
678 1 1 0 1 5.89606 3.9633 19.5644
679 1 1 0 1 -8.4305 5.90798 14.1305
680 1 1 0 1 0.828971 5.67879 15.7836
681 1 1 0 1 -3.56028 8.47898 20.7217
682 1 1 0 1 5.61799 11.5062 23.5419
683 1 1 0 1 -3.25683 11.5716 4.32065
684 1 1 0 1 -3.53676 4.79734 0.10875
685 1 1 0 1 0.437304 10.9802 4.92233
686 1 1 0 1 -3.63641 5.52673 5.22864
687 1 1 0 1 -0.562023 14.775 4.77128
688 1 1 0 1 -0.765943 13.5106 13.2911
689 1 1 0 1 0.263698 4.40414 5.52194
690 1 1 0 1 2.09076 5.50358 16.0533
691 1 1 0 1 0.206658 2.29255 3.25349
692 1 1 0 1 -4.10383 8.34213 7.05135
693 1 1 0 1 -0.954978 4.37477 18.28
694 1 1 0 1 -9.57569 12.7263 13.5938
695 1 1 0 1 -0.774316 10.5375 16.3127
696 1 1 0 1 -5.34297 5.19879 21.4276
697 1 1 0 1 -0.608626 7.1338 18.8546
698 1 1 0 1 -6.18027 10.1516 14.86
699 1 1 0 1 4.56942 6.9408 22.055
700 1 1 0 1 3.01679 12.7141 16.0643
701 1 1 0 1 -3.36509 11.6232 18.2894
702 1 1 0 1 -5.21492 6.68764 20.9173
703 1 1 0 1 -2.87095 11.2598 20.441
704 1 1 0 1 6.06403 20.8276 18.8432
705 1 1 0 1 -1.52516 7.90086 4.60858
706 1 1 0 1 -1.59488 8.09021 -5.08285
707 1 1 0 1 -0.00621495 27.3835 -0.0533517
708 1 1 0 1 4.4055 7.44779 3.15528
709 1 1 0 1 -9.09191 12.2292 2.80504
710 1 1 0 1 -2.81874 10.566 -0.593083
711 1 1 0 1 -5.9648 6.09232 7.00589
712 1 1 0 1 -2.50079 14.0652 13.7274
713 1 1 0 1 -2.22276 11.1368 7.76599
714 1 1 0 1 -1.40097 13.5112 -0.0467233
715 1 1 0 1 -3.29101 8.13944 14.2597
716 1 1 0 1 -4.18406 14.4359 18.72
717 1 1 0 1 -1.7748 14.9325 16.9666
718 1 1 0 1 -0.623212 7.90126 15.6401
719 1 1 0 1 -5.18938 7.74474 15.3063
720 1 1 0 1 -4.6513 12.371 23.886
721 1 1 0 1 -10.6013 13.3629 14.3713
722 1 1 0 1 4.48303 20.8196 27.4323
723 1 1 0 1 -2.58858 11.0319 17.5685
724 1 1 0 1 -1.73916 17.3039 21.6435
725 1 1 0 1 0.692303 15.372 26.2027
726 1 1 0 1 -9.1132 16.2231 20.6322
727 1 1 0 1 0.716002 14.9809 0.264898
728 1 1 0 1 -4.5368 17.0908 -1.92067
729 1 1 0 1 -3.22685 5.77225 -6.76847
730 1 1 0 1 -1.34817 16.9448 6.65923
731 1 1 0 1 -0.33307 17.049 7.09177
732 1 1 0 1 5.86358 12.8404 6.32992
733 1 1 0 1 -5.44263 10.7142 3.94429
734 1 1 0 1 1.33465 4.58705 2.6848
735 1 1 0 1 -7.26065 14.2652 8.08302
736 1 1 0 1 -8.57174 16.0693 -3.37406
737 1 1 0 1 1.40469 11.3829 15.9271
738 1 1 0 1 9.55997 14.2714 9.82423
739 1 1 0 1 -6.35386 6.36756 16.2465
740 1 1 0 1 -1.60865 11.0594 18.2979
741 1 1 0 1 -4.02025 8.49651 18.2609
742 1 1 0 1 4.04841 9.87339 21.4435
743 1 1 0 1 -4.84331 10.388 21.8568
744 1 1 0 1 4.38128 15.3148 25.2955
745 1 1 0 1 -2.60366 10.1781 19.4125
746 1 1 0 1 -1.08891 13.8843 21.0549
747 1 1 0 1 6.29639 12.4844 22.6461
748 1 1 0 1 2.39365 14.572 31.4191
749 1 1 0 1 0.962518 10.5745 1.45114
750 1 1 0 1 1.70983 12.5728 10.0986
751 1 1 0 1 -11.8415 12.6201 7.6169
752 1 1 0 1 -1.66169 17.1735 10.3605
753 1 1 0 1 -3.26119 12.2979 7.87158
754 1 1 0 1 2.44637 12.3149 0.326735
755 1 1 0 1 1.55608 18.1472 0.0905168
756 1 1 0 1 -7.1651 25.7291 3.53255
757 1 1 0 1 -5.71812 13.3006 13.8945
758 1 1 0 1 -7.45827 21.0844 13.642
759 1 1 0 1 -5.63364 8.74724 4.6042
760 1 1 0 1 -0.0225096 3.69469 16.4018
761 1 1 0 1 -7.34657 16.5879 17.2203
762 1 1 0 1 -8.32794 12.47 10.9127
763 1 1 0 1 4.24683 16.8348 12.4099
764 1 1 0 1 -3.99685 21.6348 15.2378
765 1 1 0 1 1.1731 12.4831 19.3838
766 1 1 0 1 -4.65098 13.3147 13.8283
767 1 1 0 1 -11.6967 14.0467 19.0804
768 1 1 0 1 -5.44659 14.0123 25.6277
769 1 1 0 1 6.99028 6.97392 23.7286
770 1 1 0 1 -2.1293 13.9371 23.7761
771 1 1 0 1 -6.81088 11.2097 1.58596
772 1 1 0 1 -1.4434 15.3107 14.2208
773 1 1 0 1 -3.18074 12.1083 2.44401
774 1 1 0 1 -1.61112 9.60654 15.6528
775 1 1 0 1 -7.24774 14.2398 -2.98276
776 1 1 0 1 -1.09795 10.7393 8.31384
777 1 1 0 1 -3.38041 15.4864 10.0398
778 1 1 0 1 -3.75695 13.9245 14.5156
779 1 1 0 1 0.442544 14.0412 18.5737
780 1 1 0 1 -3.04325 17.984 9.00079
781 1 1 0 1 3.24657 20.4903 21.372
782 1 1 0 1 -3.68433 18.9973 14.599
783 1 1 0 1 -2.72265 13.4148 9.56763
784 1 1 0 1 -4.59993 15.4976 22.9147
785 1 1 0 1 -4.2672 26.7185 18.0807
786 1 1 0 1 -5.07361 10.2317 18.7895
787 1 1 0 1 2.51338 12.1252 23.4201
788 1 1 0 1 -11.0015 18.3001 13.0977
789 1 1 0 1 -4.56813 18.4868 19.1406
790 1 1 0 1 -3.29196 14.7358 26.4059
791 1 1 0 1 -5.50054 13.3008 20.0256
792 1 1 0 1 -3.06996 10.4796 23.0275
793 1 1 0 1 -7.70226 20.5298 5.01489
794 1 1 0 1 -1.77156 19.1342 5.00246
795 1 1 0 1 4.68969 25.1105 -2.66628
796 1 1 0 1 -0.719367 15.4087 9.52442
797 1 1 0 1 -4.78468 22.687 -1.82901
798 1 1 0 1 2.51075 10.5237 -3.3231
799 1 1 0 1 -2.41455 13.8414 8.65474
800 1 1 0 1 2.87766 7.9281 0.801204
801 1 1 0 1 8.46549 15.1772 12.0236
802 1 1 0 1 -3.56242 20.7916 9.00048
803 1 1 0 1 1.36587 13.571 18.558
804 1 1 0 1 -2.50156 15.7496 14.8251
805 1 1 0 1 -8.21579 15.4992 19.7361
806 1 1 0 1 -3.12421 0.989321 4.10927
807 1 1 0 1 -0.368626 16.2366 15.4498
808 1 1 0 1 -0.767642 18.8077 11.1205
809 1 1 0 1 -3.89662 18.6024 13.0356