ITEM: TIMESTEP
11000
ITEM: NUMBER OF ATOMS
6752
ITEM: BOX BOUNDS pp pp pp
0.0000000000000000e+00 2.2000000000000000e+01
0.0000000000000000e+00 2.2000000000000000e+01
0.0000000000000000e+00 2.2000000000000000e+01
ITEM: ATOMS id mol type q mass xu yu zu
1 1 1 0 1 -1.93119 -5.31755 0.186384
2 1 1 0 1 -5.1655 1.44547 3.83005
3 1 1 0 1 -2.82103 1.42528 5.75732
4 1 1 0 1 -6.40867 -2.47526 8.81174
5 1 1 0 1 -1.46345 3.5779 4.87005
6 1 1 0 1 -5.91744 -0.866251 10.352
7 1 1 0 1 -3.94823 5.34214 6.71573
8 1 1 0 1 -1.16935 -4.09611 11.0795
9 1 1 0 1 -0.930367 2.99193 10.7143
10 1 1 0 1 -6.02411 2.51127 9.65097
11 1 1 0 1 -3.84006 1.32934 7.52191
12 1 1 0 1 -8.2569 -3.60504 14.3209
13 1 1 0 1 -0.26269 2.13309 11.563
14 1 1 0 1 -1.80632 7.92769 14.5042
15 1 1 0 1 -7.14386 5.57475 11.8516
16 1 1 0 1 -6.51009 -2.14207 15.4249
17 1 1 0 1 -0.0614383 2.43829 13.1675
18 1 1 0 1 -2.18145 -1.03636 20.7911
19 1 1 0 1 -1.07706 3.68506 19.1613
20 1 1 0 1 0.142348 -3.23531 18.2627
21 1 1 0 1 -2.56583 3.52457 15.9093
22 1 1 0 1 -3.6587 12.567 17.3615
23 1 1 0 1 -5.73534 1.22781 5.57672
24 1 1 0 1 -5.44982 1.37993 -0.529648
25 1 1 0 1 -5.19463 -3.85632 -0.562687
26 1 1 0 1 0.206683 -0.246677 5.42087
27 1 1 0 1 -4.83381 -0.405804 10.1073
28 1 1 0 1 -5.17957 2.91078 1.12899
29 1 1 0 1 -2.37844 -1.36777 11.0972
30 1 1 0 1 -5.69689 -1.78949 11.1365
31 1 1 0 1 -4.32083 6.03099 13.5749
32 1 1 0 1 -5.74771 -3.79552 7.72108
33 1 1 0 1 -3.93339 2.29507 11.7977
34 1 1 0 1 0.859695 2.85286 11.6403
35 1 1 0 1 -4.94978 0.634528 13.4284
36 1 1 0 1 -0.724288 1.72214 7.27381
37 1 1 0 1 -6.33169 0.920198 14.7453
38 1 1 0 1 -1.44763 1.46005 20.4025
39 1 1 0 1 -0.653817 1.71327 9.23722
40 1 1 0 1 -3.7391 7.44361 23.1779
41 1 1 0 1 -4.79876 0.44786 15.6851
42 1 1 0 1 -8.46878 2.64548 24.96
43 1 1 0 1 -1.89701 9.90806 23.8833
44 1 1 0 1 -2.53715 8.09414 16.9152
45 1 1 0 1 -9.55943 7.51123 7.17057
46 1 1 0 1 -9.35882 7.24843 8.83785
47 1 1 0 1 -3.06178 2.45192 -2.49489
48 1 1 0 1 -11.0845 4.85621 3.85639
49 1 1 0 1 0.597705 5.80648 0.818256
50 1 1 0 1 -3.71378 5.52062 1.33208
51 1 1 0 1 -3.50881 7.00412 7.27022
52 1 1 0 1 0.97321 4.13891 15.2485
53 1 1 0 1 -3.47721 2.30444 4.70455
54 1 1 0 1 -5.47996 -0.204822 12.9292
55 1 1 0 1 -5.49011 3.31736 11.6093
56 1 1 0 1 -0.68005 -1.08363 8.83542
57 1 1 0 1 -1.74671 8.87188 11.547
58 1 1 0 1 -0.565365 9.77376 15.7882
59 1 1 0 1 -4.43292 1.53312 12.6023
60 1 1 0 1 0.40738 4.40773 19.3377
61 1 1 0 1 -5.43176 4.76306 10.145
62 1 1 0 1 0.288564 1.12075 19.7215
63 1 1 0 1 -1.39118 12.6453 7.95566
64 1 1 0 1 -3.35618 -1.00183 16.2773
65 1 1 0 1 -3.63014 5.55822 21.5678
66 1 1 0 1 -9.3923 2.49231 25.57
67 1 1 0 1 -4.85631 2.02328 -2.23851
68 1 1 0 1 -2.53679 2.57304 -7.86557
69 1 1 0 1 -3.95301 6.36413 -1.3019
70 1 1 0 1 -5.11026 7.88374 3.30916
71 1 1 0 1 -0.138387 4.62795 5.33471
72 1 1 0 1 -11.6211 3.81647 6.02994
73 1 1 0 1 2.45539 0.876216 8.31165
74 1 1 0 1 -3.80882 3.60376 9.77098
75 1 1 0 1 -2.17606 1.23617 11.1991
76 1 1 0 1 -7.40054 -0.473209 8.81184
77 1 1 0 1 -4.79489 -3.54596 8.60258
78 1 1 0 1 -2.68083 5.61347 12.0902
79 1 1 0 1 -3.51474 3.69542 11.2889
80 1 1 0 1 3.17668 2.0375 7.36641
81 1 1 0 1 -0.408374 7.54755 15.088
82 1 1 0 1 -2.1155 0.782003 14.8925
83 1 1 0 1 -3.8795 2.09107 15.4642
84 1 1 0 1 -1.71323 3.65568 16.4226
85 1 1 0 1 -4.34511 0.807814 25.4024
86 1 1 0 1 -4.51516 4.1944 19.2086
87 1 1 0 1 -5.24319 -2.35565 21.6258
88 1 1 0 1 -3.02839 7.66975 20.912
89 1 1 0 1 -3.10759 9.16074 -0.412358
90 1 1 0 1 0.0884366 7.95451 7.86058
91 1 1 0 1 -3.27674 -1.42507 6.12596
92 1 1 0 1 -4.06941 8.0365 7.0943
93 1 1 0 1 -3.8445 9.87471 7.55525
94 1 1 0 1 -6.79604 -0.511456 7.85417
95 1 1 0 1 -4.72533 7.22695 10.2947
96 1 1 0 1 -2.75977 4.34976 10.2634
97 1 1 0 1 -0.331848 8.87365 11.1518
98 1 1 0 1 -1.5028 6.23116 4.95421
99 1 1 0 1 -4.34817 6.68691 12.4281
100 1 1 0 1 -2.39279 3.01948 6.67378
101 1 1 0 1 -3.55801 4.78461 12.103
102 1 1 0 1 -3.17348 4.46587 14.5363
103 1 1 0 1 -8.07143 14.8208 11.8037
104 1 1 0 1 -3.37686 10.0897 14.6964
105 1 1 0 1 -4.40474 9.20131 8.61584
106 1 1 0 1 -2.89177 0.748563 20.7109
107 1 1 0 1 -7.67814 11.3291 17.165
108 1 1 0 1 -2.47664 6.36255 17.8722
109 1 1 0 1 -7.43146 7.81288 19.2744
110 1 1 0 1 -5.68431 9.20541 21.219
111 1 1 0 1 -7.63549 0.0141202 2.37942
112 1 1 0 1 -4.03004 2.64766 -2.20822
113 1 1 0 1 0.700907 14.8003 9.65954
114 1 1 0 1 -3.56229 4.88079 3.40256
115 1 1 0 1 -2.00109 12.9965 5.70236
116 1 1 0 1 -1.21633 12.0613 2.2677
117 1 1 0 1 -2.23503 10.171 5.874
118 1 1 0 1 -1.73001 4.39436 5.39546
119 1 1 0 1 -3.88084 -0.815595 9.57846
120 1 1 0 1 -1.76267 -0.0278752 9.93255
121 1 1 0 1 -1.29002 3.83399 8.98525
122 1 1 0 1 -3.6605 5.77387 12.5698
123 1 1 0 1 -5.28434 6.63613 15.7062
124 1 1 0 1 -7.43735 10.1266 14.485
125 1 1 0 1 -5.65826 11.7279 9.14208
126 1 1 0 1 -4.90658 8.17176 14.9296
127 1 1 0 1 -3.59331 10.1236 15.7213
128 1 1 0 1 -10.1619 11.8681 15.8224
129 1 1 0 1 -0.856528 6.24392 18.4856
130 1 1 0 1 -5.1992 3.10878 19.3831
131 1 1 0 1 -3.32628 3.43265 13.8688
132 1 1 0 1 -5.67088 5.44937 23.5719
133 1 1 0 1 -3.12999 8.30381 1.23889
134 1 1 0 1 -7.98927 6.12053 6.93422
135 1 1 0 1 -6.8882 -0.468168 4.54265
136 1 1 0 1 -2.7136 12.5207 3.93206
137 1 1 0 1 -6.97319 7.91629 6.25589
138 1 1 0 1 -7.95535 10.4351 9.94318
139 1 1 0 1 -1.4711 8.25343 4.4708
140 1 1 0 1 -7.82447 8.0452 3.58852
141 1 1 0 1 6.28255 6.28754 1.95117
142 1 1 0 1 -2.16381 2.58994 10.9298
143 1 1 0 1 -1.63185 4.23125 11.6137
144 1 1 0 1 -0.989688 2.07745 8.33471
145 1 1 0 1 -4.3452 6.73566 17.6969
146 1 1 0 1 -4.31007 12.8486 19.4281
147 1 1 0 1 -1.92372 11.9789 15.7473
148 1 1 0 1 -5.86583 13.5916 13.9333
149 1 1 0 1 -3.22759 10.2489 21.0982
150 1 1 0 1 -6.95943 7.31892 14.3559
151 1 1 0 1 -4.94449 5.22156 21.8174
152 1 1 0 1 -3.83885 5.351 17.6611
153 1 1 0 1 -3.79606 7.46582 18.7584
154 1 1 0 1 -2.16472 7.34421 26.9693
155 1 1 0 1 -2.66307 4.89201 -2.70749
156 1 1 0 1 -4.00857 2.92553 1.3869
157 1 1 0 1 -2.77963 5.47423 3.63121
158 1 1 0 1 -1.9416 8.47967 3.49413
159 1 1 0 1 -6.62411 8.82322 -1.09613
160 1 1 0 1 -7.65262 3.46942 6.72435
161 1 1 0 1 -0.467927 9.19383 4.50328
162 1 1 0 1 -4.37818 7.78363 5.85034
163 1 1 0 1 0.68134 6.89764 7.66652
164 1 1 0 1 -5.14962 4.41355 14.6453
165 1 1 0 1 -3.37892 8.89155 7.41333
166 1 1 0 1 -2.3968 7.2733 15.9182
167 1 1 0 1 -2.39765 11.2524 12.8212
168 1 1 0 1 -2.33521 12.212 17.8338
169 1 1 0 1 -8.05511 10.6375 18.4437
170 1 1 0 1 -0.109044 7.86506 21.0604
171 1 1 0 1 -0.146392 9.24042 16.8018
172 1 1 0 1 -2.44473 8.42452 21.427
173 1 1 0 1 -1.25719 5.5024 16.5687
174 1 1 0 1 -0.25185 4.09309 25.1277
175 1 1 0 1 -6.10732 10.2651 21.1057
176 1 1 0 1 1.08897 7.78782 23.8091
177 1 1 0 1 -7.20968 2.08629 1.5778
178 1 1 0 1 0.089342 17.9864 7.54254
179 1 1 0 1 -4.01065 16.21 -0.426432
180 1 1 0 1 -1.63721 13.2351 2.01244
181 1 1 0 1 -3.60881 11.0552 6.08458
182 1 1 0 1 -3.60441 16.8246 5.74039
183 1 1 0 1 -3.23568 5.45976 4.6275
184 1 1 0 1 -1.52531 11.6955 7.62377
185 1 1 0 1 -7.98826 2.5538 9.16946
186 1 1 0 1 -10.4832 9.7341 7.17622
187 1 1 0 1 -7.95345 13.6045 8.4484
188 1 1 0 1 -2.18761 3.33419 9.83206
189 1 1 0 1 0.822114 12.611 11.172
190 1 1 0 1 -5.26974 7.27954 17.1873
191 1 1 0 1 -1.61288 11.1028 19.8962
192 1 1 0 1 -2.61121 9.30911 20.5359
193 1 1 0 1 -2.07872 4.61854 16.1218
194 1 1 0 1 -1.52344 10.9972 23.846
195 1 1 0 1 -3.15367 9.29039 17.0175
196 1 1 0 1 -2.96896 2.69847 18.4355
197 1 1 0 1 -3.9446 10.4366 17.1347
198 1 1 0 1 2.61798 9.26736 23.555
199 1 1 0 1 3.33047 10.2965 0.303174
200 1 1 0 1 1.84847 9.43068 2.47934
201 1 1 0 1 -4.14339 8.77087 1.27416
202 1 1 0 1 -3.22969 7.31286 5.1543
203 1 1 0 1 -5.84319 10.4663 1.52728
204 1 1 0 1 -3.17879 10.5024 5.29267
205 1 1 0 1 0.608899 6.76295 5.25248
206 1 1 0 1 -2.5414 7.79502 5.83905
207 1 1 0 1 -7.08076 5.97211 4.89441
208 1 1 0 1 -3.40908 5.61656 14.7038
209 1 1 0 1 -2.90645 3.47407 8.07642
210 1 1 0 1 -3.45569 8.55103 13.2746
211 1 1 0 1 0.630162 8.29091 10.5775
212 1 1 0 1 -4.11284 10.1617 9.14882
213 1 1 0 1 3.54806 13.2042 18.7068
214 1 1 0 1 -10.1643 13.5584 20.4637
215 1 1 0 1 -7.10786 10.4197 18.9255
216 1 1 0 1 -3.61683 9.77892 19.4502
217 1 1 0 1 -4.0799 13.7314 25.5696
218 1 1 0 1 -1.69964 9.08201 21.0847
219 1 1 0 1 2.65863 10.173 24.8702
220 1 1 0 1 -1.65482 11.6624 21.2462
221 1 1 0 1 4.24494 10.4197 -3.60509
222 1 1 0 1 -5.71306 9.56742 5.21457
223 1 1 0 1 -8.40131 11.5603 4.08748
224 1 1 0 1 -2.42609 10.1902 2.89637
225 1 1 0 1 -7.31733 13.0152 6.4432
226 1 1 0 1 -8.91968 12.6738 5.19403
227 1 1 0 1 -8.73171 13.9327 7.86428
228 1 1 0 1 -3.79042 13.796 7.37945
229 1 1 0 1 0.0118723 10.0411 8.39124
230 1 1 0 1 -3.68122 13.9466 6.0949
231 1 1 0 1 -2.38943 11.0369 15.0167
232 1 1 0 1 -1.86783 2.56065 13.379
233 1 1 0 1 -2.15596 9.93205 14.4172
234 1 1 0 1 -10.5018 11.4052 13.3093
235 1 1 0 1 -0.819208 7.89652 18.3741
236 1 1 0 1 -9.89011 14.3596 14.8246
237 1 1 0 1 -5.3686 16.8555 20.2283
238 1 1 0 1 -5.64675 12.3175 15.043
239 1 1 0 1 -6.11928 12.8814 17.7066
240 1 1 0 1 -4.40659 11.2308 17.5748
241 1 1 0 1 -0.746924 10.0459 19.7692
242 1 1 0 1 -1.14832 8.43205 23.0033
243 1 1 0 1 -2.74575 11.4095 3.11704
244 1 1 0 1 -5.37581 13.0042 -0.426103
245 1 1 0 1 -6.07704 13.4563 2.48891
246 1 1 0 1 -2.0314 13.6366 4.87646
247 1 1 0 1 -6.79742 12.1221 4.8126
248 1 1 0 1 -2.53338 4.20928 4.43669
249 1 1 0 1 -3.92096 12.3542 6.0455
250 1 1 0 1 -2.532 10.1355 8.62415
251 1 1 0 1 -4.83302 9.82668 7.7852
252 1 1 0 1 0.950643 5.81047 7.59051
253 1 1 0 1 1.54309 3.14024 13.6484
254 1 1 0 1 1.70782 12.2745 11.7407
255 1 1 0 1 -6.93051 10.3463 9.67993
256 1 1 0 1 -10.6945 16.0267 12.808
257 1 1 0 1 -0.911137 17.3614 18.7451
258 1 1 0 1 -1.4205 15.2263 14.168
259 1 1 0 1 -3.27821 14.1929 19.6633
260 1 1 0 1 1.06736 12.0189 16.0867
261 1 1 0 1 -3.00747 8.45473 17.7342
262 1 1 0 1 -4.29448 14.6807 25.048
263 1 1 0 1 -2.03017 11.6082 17.1325
264 1 1 0 1 0.791715 19.5976 24.1247
265 1 1 0 1 -1.08136 13.1818 0.423414
266 1 1 0 1 5.77141 15.4365 1.45993
267 1 1 0 1 -3.57641 14.5517 4.13966
268 1 1 0 1 -3.81399 11.4971 -1.12303
269 1 1 0 1 3.08618 9.74003 9.33167
270 1 1 0 1 -3.27588 13.364 -0.49412
271 1 1 0 1 -5.02129 8.25014 8.72066
272 1 1 0 1 -8.86111 14.1358 9.05207
273 1 1 0 1 -4.71994 13.0177 6.2535
274 1 1 0 1 -5.38647 8.80793 13.0672
275 1 1 0 1 -10.5908 6.55047 11.4592
276 1 1 0 1 -1.42702 13.2445 13.4728
277 1 1 0 1 -1.76514 12.8592 10.0312
278 1 1 0 1 -0.720836 16.1811 12.7419
279 1 1 0 1 -5.44661 16.8401 12.8976
280 1 1 0 1 -9.95548 14.6732 5.51128
281 1 1 0 1 1.26714 15.5835 21.8219
282 1 1 0 1 -5.48847 14.1502 9.39642
283 1 1 0 1 0.480496 16.4094 14.0047
284 1 1 0 1 -0.415894 14.2438 18.9408
285 1 1 0 1 -2.92172 10.5329 18.3269
286 1 1 0 1 -5.59089 13.1946 18.7472
287 1 1 0 1 -3.28411 19.9921 2.82054
288 1 1 0 1 -0.332715 14.3644 6.07267
289 1 1 0 1 -5.12732 5.4029 7.16951
290 1 1 0 1 -3.34126 8.60065 2.2488
291 1 1 0 1 -7.78208 8.14146 14.6324
292 1 1 0 1 -7.347 14.8305 7.59896
293 1 1 0 1 0.0181343 11.6909 5.99741
294 1 1 0 1 -3.84002 12.7241 8.22064
295 1 1 0 1 -0.955995 10.6075 10.714
296 1 1 0 1 -6.6497 11.6668 10.8569
297 1 1 0 1 -4.80193 13.9514 7.25311
298 1 1 0 1 -6.95698 7.10437 11.6099
299 1 1 0 1 1.40628 16.2287 15.3266
300 1 1 0 1 0.224068 16.4891 20.4871
301 1 1 0 1 -7.68612 17.3706 13.0036
302 1 1 0 1 -3.67808 14.8767 17.1403
303 1 1 0 1 -4.67218 16.5898 13.6456
304 1 1 0 1 -1.61088 11.6032 10.1605
305 1 1 0 1 1.00168 11.2322 15.2769
306 1 1 0 1 -0.862216 16.9369 23.1147
307 1 1 0 1 -3.00745 11.2202 13.972
308 1 1 0 1 0.406073 19.4494 32.4364
309 1 1 0 1 -1.62703 13.9782 1.09937
310 1 1 0 1 -3.62524 11.6636 2.49429
311 1 1 0 1 -6.26106 14.4054 -1.46615
312 1 1 0 1 -9.53096 9.21334 3.35519
313 1 1 0 1 -7.53901 16.0317 3.0908
314 1 1 0 1 -0.865721 10.0974 5.09975
315 1 1 0 1 -0.632633 9.67056 10.5152
316 1 1 0 1 -4.71776 12.7629 1.19269
317 1 1 0 1 -4.23463 15.4023 6.65003
318 1 1 0 1 -2.55283 14.6523 9.52336
319 1 1 0 1 -4.19026 12.5582 7.12618
320 1 1 0 1 2.05479 21.355 11.3703
321 1 1 0 1 -0.436767 14.5328 13.8664
322 1 1 0 1 0.0771709 8.2451 13.3594
323 1 1 0 1 -3.46018 13.6595 9.57283
324 1 1 0 1 -4.42675 11.0572 7.41865
325 1 1 0 1 -1.49481 15.1907 10.6667
326 1 1 0 1 -7.36569 15.6876 18.4372
327 1 1 0 1 -1.99127 14.6266 18.7399
328 1 1 0 1 -4.73936 16.1952 19.5513
329 1 1 0 1 -0.519982 12.5116 19.8019
330 1 1 0 1 -2.31011 13.9989 21.0191
331 1 1 0 1 -1.49112 17.849 4.16309
332 1 1 0 1 1.1669 19.3082 3.20788
333 1 1 0 1 -2.0951 15.8062 5.40248
334 1 1 0 1 -5.19854 17.3568 0.419537
335 1 1 0 1 -3.63978 14.7483 7.91365
336 1 1 0 1 -8.08571 10.8513 4.99443
337 1 1 0 1 -3.64175 10.8216 8.4103
338 1 1 0 1 -0.895577 13.521 10.6222
339 1 1 0 1 -11.0998 11.965 3.02205
340 1 1 0 1 2.98698 14.4021 8.10522
341 1 1 0 1 -4.83409 10.7939 8.67213
342 1 1 0 1 -6.73223 13.4052 14.459
343 1 1 0 1 -7.07256 12.2757 2.50906
344 1 1 0 1 -7.61921 13.7601 12.334
345 1 1 0 1 -8.81816 12.7484 15.8991
346 1 1 0 1 7.58462 15.1481 14.7677
347 1 1 0 1 -1.9813 15.6817 18.794
348 1 1 0 1 -1.58817 13.453 17.8931
349 1 1 0 1 0.307869 16.5332 15.0334
350 1 1 0 1 -1.69475 11.8398 19.0763
351 1 1 0 1 -8.40339 16.7513 16.1919
352 1 1 0 1 -0.763516 18.3033 25.3995
353 1 1 0 1 -6.39535 17.9636 2.93554
354 1 1 0 1 4.51899 18.2806 1.67721
355 1 1 0 1 -3.63141 11.7103 7.01889
356 1 1 0 1 -5.15241 13.7709 4.00856
357 1 1 0 1 -0.611062 16.4148 2.09106
358 1 1 0 1 -3.11751 15.7485 4.91588
359 1 1 0 1 -6.54415 15.6901 4.23054
360 1 1 0 1 -1.78912 14.2999 8.88713
361 1 1 0 1 -5.62507 17.0657 11.8804
362 1 1 0 1 -0.466366 14.5592 12.301
363 1 1 0 1 -1.22641 13.4865 9.02951
364 1 1 0 1 3.93937 16.6047 13.183
365 1 1 0 1 -1.21862 9.83157 4.12212
366 1 1 0 1 -6.2005 13.2996 15.4383
367 1 1 0 1 -0.0690303 12.7211 10.4695
368 1 1 0 1 -4.83361 18.0284 18.5014
369 1 1 0 1 -7.66279 11.9957 11.3781
370 1 1 0 1 -3.22558 9.37943 8.85658
371 1 1 0 1 -0.49162 17.5463 24.0064
372 1 1 0 1 -3.60495 13.4241 18.5558
373 1 1 0 1 -10.2772 11.9313 21.9269
374 1 1 0 1 -5.49484 15.1506 23.8757
375 1 1 0 1 -5.55942 6.51237 3.63583
376 1 1 0 1 -7.1856 11.444 1.51463
377 1 1 0 1 -9.67181 18.4083 4.20799
378 1 1 0 1 -7.54163 16.9053 3.87385
379 1 1 0 1 -4.42598 15.072 -2.39963
380 1 1 0 1 -5.19303 12.9635 3.18788
381 1 1 0 1 -5.52669 16.2063 5.65221
382 1 1 0 1 -10.3003 18.4064 12.6885
383 1 1 0 1 -1.30126 17.2472 12.1136
384 1 1 0 1 0.555994 14.1471 11.1521
385 1 1 0 1 -2.96457 19.3401 14.6103
386 1 1 0 1 -3.63021 14.8347 10.2168
387 1 1 0 1 -6.78533 12.3757 15.6196
388 1 1 0 1 -4.98414 14.4408 18.8184
389 1 1 0 1 -5.88821 12.0507 17.0007
390 1 1 0 1 -2.67633 14.9568 19.3512
391 1 1 0 1 -5.48023 18.0245 17.5491
392 1 1 0 1 -9.37527 15.7778 9.60262
393 1 1 0 1 -3.4869 8.98361 15.8307
394 1 1 0 1 -5.43202 17.8554 20.0486
395 1 1 0 1 -7.05159 13.1967 13.1503
396 1 1 0 1 -3.66413 16.4829 23.0119
397 1 1 0 1 1.09915 18.3988 2.07164
398 1 1 0 1 -3.403 25.6039 2.14405
399 1 1 0 1 -5.56415 12.8226 -2.04446
400 1 1 0 1 -2.02887 9.50926 3.5562
401 1 1 0 1 1.39836 11.6544 6.52508
402 1 1 0 1 -2.52163 18.3364 7.7056
403 1 1 0 1 -1.87367 16.4578 10.6606
404 1 1 0 1 -6.24409 20.9031 2.47559
405 1 1 0 1 -10.5489 15.1246 8.80427
406 1 1 0 1 -4.64937 15.0269 7.86228
407 1 1 0 1 -5.36765 16.5822 6.95144
408 1 1 0 1 -11.535 16.4541 9.54677
409 1 1 0 1 -4.66017 14.4116 15.7657
410 1 1 0 1 -6.52345 11.1348 13.3561
411 1 1 0 1 -0.137244 17.3116 13.1857
412 1 1 0 1 -11.4591 14.6558 10.7522
413 1 1 0 1 -8.81512 18.3605 19.3865
414 1 1 0 1 -6.32684 12.8652 20.6967
415 1 1 0 1 -0.0261078 15.6897 19.6063
416 1 1 0 1 -2.71353 9.94863 22.353
417 1 1 0 1 1.98322 21.0023 20.8593
418 1 1 0 1 0.0528236 16.1731 23.1787
419 1 1 0 1 -5.26364 18.0517 5.38615
420 1 1 0 1 -1.01048 25.8762 10.1077
421 1 1 0 1 -4.09854 19.9351 6.36572
422 1 1 0 1 -3.31689 11.8978 5.05056
423 1 1 0 1 -1.59102 21.1085 8.00208
424 1 1 0 1 -4.33318 19.5839 8.70793
425 1 1 0 1 -6.5358 16.2965 5.13229
426 1 1 0 1 -0.43594 22.5155 4.80947
427 1 1 0 1 -0.723404 18.5987 10.138
428 1 1 0 1 0.946318 23.8661 4.50314
429 1 1 0 1 -4.95756 25.26 7.78407
430 1 1 0 1 3.12245 18.7208 12.3839
431 1 1 0 1 -9.04093 16.9556 13.1549
432 1 1 0 1 0.945484 23.4395 14.4064
433 1 1 0 1 -5.30639 16.7083 17.5711
434 1 1 0 1 -4.27801 11.1605 13.6801
435 1 1 0 1 -4.18234 11.4921 19.7833
436 1 1 0 1 -8.68231 18.2157 17.8995
437 1 1 0 1 -0.335523 14.8446 15.6763
438 1 1 0 1 -4.35316 18.0777 17.0967
439 1 1 0 1 -3.21125 18.989 19.9641
440 1 1 0 1 -6.30319 16.9237 22.4706
441 1 1 0 1 -4.33863 16.5771 -1.60289
442 1 1 0 1 -1.80867 19.8648 6.72342
443 1 1 0 1 -2.08821 19.7628 0.84776
444 1 1 0 1 -3.08041 27.2048 -1.6679
445 1 1 0 1 -6.34807 17.3446 5.6935
446 1 1 0 1 -3.03681 7.70313 7.92386
447 1 1 0 1 -5.50677 13.0387 7.16517
448 1 1 0 1 -5.56703 15.6192 7.34367
449 1 1 0 1 -4.52329 17.321 12.0305
450 1 1 0 1 0.256507 17.8055 17.6899
451 1 1 0 1 -5.83893 18.0348 10.4346
452 1 1 0 1 -9.16499 16.9603 17.6347
453 1 1 0 1 -6.0603 15.2934 14.7091
454 1 1 0 1 0.376108 22.4257 14.3592
455 1 1 0 1 -5.82529 10.4052 9.08581
456 1 1 0 1 -5.64496 13.3963 11.7163
457 1 1 0 1 -6.94727 21.96 14.3164
458 1 1 0 1 -10.0781 20.2741 17.9923
459 1 1 0 1 -6.73626 18.3359 16.649
460 1 1 0 1 -3.56417 13.6958 20.5805
461 1 1 0 1 -2.22642 22.3065 12.9478
462 1 1 0 1 2.45956 20.2389 19.5051
463 1 1 0 1 -0.973324 21.3888 -6.9841
464 1 1 0 1 1.216 20.9087 1.97501
465 1 1 0 1 0.79838 25.2165 2.64376
466 1 1 0 1 0.0541958 25.049 3.52172
467 1 1 0 1 -5.22791 18.0495 12.3998
468 1 1 0 1 -5.16255 21.5475 6.35046
469 1 1 0 1 -3.72523 16.2783 6.80786
470 1 1 0 1 -1.09871 21.3352 3.26075
471 1 1 0 1 -3.35171 14.5052 6.80677
472 1 1 0 1 0.97048 27.5044 8.82916
473 1 1 0 1 -6.58052 18.5256 13.9193
474 1 1 0 1 -2.15361 18.4973 11.3079
475 1 1 0 1 -1.54966 19.0991 14.196
476 1 1 0 1 -0.312226 23.0802 20.6411
477 1 1 0 1 -2.16964 21.2575 18.2092
478 1 1 0 1 -3.04258 18.2191 15.7271
479 1 1 0 1 -0.951136 24.2928 14.1892
480 1 1 0 1 2.70762 20.8851 17.0646
481 1 1 0 1 -1.35214 18.8162 19.7242
482 1 1 0 1 -5.49224 26.5638 15.9137
483 1 1 0 1 0.598649 20.1202 25.4815
484 1 1 0 1 1.35803 20.7117 25.9865
485 1 1 0 1 -5.30271 -0.727032 1.59546
486 1 1 0 1 -1.24012 2.45905 -2.11064
487 1 1 0 1 -2.74194 4.90414 2.77556
488 1 1 0 1 -0.310449 -0.856079 1.62459
489 1 1 0 1 -3.42995 5.7169 7.56357
490 1 1 0 1 -3.57492 0.483765 2.46696
491 1 1 0 1 -3.44814 0.634874 8.31367
492 1 1 0 1 -2.67672 -4.48406 9.84026
493 1 1 0 1 -4.52107 -0.999962 11.2232
494 1 1 0 1 -4.67572 -0.94493 4.53545
495 1 1 0 1 -3.25815 0.382939 14.6103
496 1 1 0 1 0.61439 3.83876 12.1426
497 1 1 0 1 -2.08787 -1.6435 10.0476
498 1 1 0 1 0.513591 -1.24897 17.2085
499 1 1 0 1 -3.55324 -2.29164 13.3021
500 1 1 0 1 -3.71755 -5.27497 18.4271
501 1 1 0 1 1.5374 -4.16124 12.6028
502 1 1 0 1 0.473945 -4.42069 18.8075
503 1 1 0 1 -2.78494 2.44122 15.5964
504 1 1 0 1 -3.62803 -1.16396 12.9529
505 1 1 0 1 -4.12662 -2.93987 13.8186
506 1 1 0 1 -5.45401 4.96135 21.011
507 1 1 0 1 -3.14094 2.48678 0.962361
508 1 1 0 1 -2.57844 1.8444 2.58033
509 1 1 0 1 -5.41545 4.62551 2.34439
510 1 1 0 1 -4.98726 0.32529 0.810849
511 1 1 0 1 2.16075 2.98098 -0.309055
512 1 1 0 1 -0.479902 6.48311 7.692
513 1 1 0 1 -3.17105 -1.63738 4.77098
514 1 1 0 1 -4.08427 -0.149331 3.38248
515 1 1 0 1 3.55811 4.709 2.91607
516 1 1 0 1 -5.73837 0.00786358 7.44933
517 1 1 0 1 -6.11757 1.29559 7.49694
518 1 1 0 1 -1.40977 1.08016 6.91485
519 1 1 0 1 -1.3865 0.86682 12.5001
520 1 1 0 1 0.601015 0.228633 12.0535
521 1 1 0 1 -0.666803 1.73028 10.549
522 1 1 0 1 -4.47653 3.3113 11.7278
523 1 1 0 1 2.02981 -1.37589 15.1262
524 1 1 0 1 -1.67049 1.18788 15.8446
525 1 1 0 1 -6.10877 3.07038 24.5769
526 1 1 0 1 1.84287 -2.88508 23.6044
527 1 1 0 1 -1.57356 5.59918 21.6623
528 1 1 0 1 2.47973 6.13003 21.9008
529 1 1 0 1 3.58602 8.09341 4.33528
530 1 1 0 1 0.22505 -1.87642 -2.31077
531 1 1 0 1 -3.94404 8.04455 -2.21272
532 1 1 0 1 1.11231 -3.97715 -0.069285
533 1 1 0 1 -3.15819 3.43774 0.283218
534 1 1 0 1 -0.507577 2.52405 5.57839
535 1 1 0 1 0.740906 4.99233 3.62527
536 1 1 0 1 -1.60475 5.6545 6.298
537 1 1 0 1 -2.49819 1.64661 8.15699
538 1 1 0 1 -5.69713 -3.0615 11.2215
539 1 1 0 1 -2.43796 5.4365 14.3502
540 1 1 0 1 -1.79638 6.3223 10.348
541 1 1 0 1 -6.16877 10.1034 12.8079
542 1 1 0 1 -3.30871 5.88503 15.8676
543 1 1 0 1 -9.00753 8.22907 14.2834
544 1 1 0 1 2.39048 2.24301 14.2461
545 1 1 0 1 -2.25092 3.54115 13.6833
546 1 1 0 1 1.31784 0.46708 13.8072
547 1 1 0 1 -3.97036 0.411908 18.4315
548 1 1 0 1 -4.14611 8.76697 25.2919
549 1 1 0 1 -3.39215 6.08851 22.5324
550 1 1 0 1 -2.59568 4.87356 22.7367
551 1 1 0 1 -2.3448 9.12449 2.48341
552 1 1 0 1 -3.85262 8.3846 -1.07079
553 1 1 0 1 -1.11286 7.95654 3.56444
554 1 1 0 1 -1.84595 4.19211 -1.99361
555 1 1 0 1 -3.47022 6.85151 2.88639
556 1 1 0 1 -2.86016 4.22098 6.5689
557 1 1 0 1 -1.97762 4.27645 8.30599
558 1 1 0 1 0.161048 4.37813 6.4939
559 1 1 0 1 -2.3963 0.0557946 10.7796
560 1 1 0 1 -3.91905 1.36069 5.7137
561 1 1 0 1 -1.51 0.400694 13.7061
562 1 1 0 1 0.171252 3.94143 14.5275
563 1 1 0 1 -3.62568 3.26665 12.6962
564 1 1 0 1 -3.57098 -0.538417 10.6716
565 1 1 0 1 2.07215 5.36302 15.5639
566 1 1 0 1 3.89673 4.36775 13.8932
567 1 1 0 1 0.430838 5.16507 18.3638
568 1 1 0 1 1.97463 6.28742 15.0345
569 1 1 0 1 1.33501 3.21326 20.9492
570 1 1 0 1 -3.1912 2.48036 21.6422
571 1 1 0 1 3.91523 5.36671 19.1596
572 1 1 0 1 -2.25828 1.61352 21.2071
573 1 1 0 1 -1.90506 5.25931 -2.03029
574 1 1 0 1 -2.41329 6.21641 6.78519
575 1 1 0 1 -4.34342 -0.547924 -1.78247
576 1 1 0 1 -4.57715 4.95208 1.44997
577 1 1 0 1 -5.67886 4.07031 5.82791
578 1 1 0 1 -3.0844 9.38875 10.5684
579 1 1 0 1 -3.63968 7.21748 8.76848
580 1 1 0 1 -3.38326 0.19033 9.88611
581 1 1 0 1 -2.45682 9.78599 9.75827
582 1 1 0 1 -0.333332 4.58409 9.36963
583 1 1 0 1 -3.64076 6.39282 9.7629
584 1 1 0 1 -2.58978 9.54813 15.404
585 1 1 0 1 -6.24588 6.81249 17.0632
586 1 1 0 1 -1.88972 13.2354 16.0047
587 1 1 0 1 -6.81657 11.0745 14.4162
588 1 1 0 1 -5.76423 3.09363 14.8081
589 1 1 0 1 -5.46603 5.98024 22.5895
590 1 1 0 1 -2.8034 3.29547 17.2793
591 1 1 0 1 -1.2757 3.37713 14.2497
592 1 1 0 1 -3.15429 2.42774 23.9071
593 1 1 0 1 -2.00189 3.89007 18.0842
594 1 1 0 1 -5.2372 -2.05173 20.3461
595 1 1 0 1 -0.443578 3.13684 -2.141
596 1 1 0 1 -4.22733 6.69559 5.46628
597 1 1 0 1 -4.72592 2.31162 7.76291
598 1 1 0 1 2.89502 3.6973 2.0057
599 1 1 0 1 6.12677 7.49354 2.90728
600 1 1 0 1 1.48889 9.09307 1.11501
601 1 1 0 1 -6.04191 7.67294 8.82788
602 1 1 0 1 3.71694 2.00375 2.05888
603 1 1 0 1 4.77892 3.02445 10.5958
604 1 1 0 1 3.32904 5.99061 12.2567
605 1 1 0 1 3.64898 4.42931 9.46564
606 1 1 0 1 -5.46205 -2.975 15.4674
607 1 1 0 1 -0.842233 7.32361 9.42018
608 1 1 0 1 -1.25683 1.83809 11.3146
609 1 1 0 1 3.76053 9.40836 10.991
610 1 1 0 1 0.967602 6.21439 14.2086
611 1 1 0 1 -1.26839 6.00254 11.4013
612 1 1 0 1 0.534219 2.84982 18.7866
613 1 1 0 1 0.649482 2.09544 17.71
614 1 1 0 1 -3.04421 4.48186 21.8051
615 1 1 0 1 -7.32506 3.94028 23.299
616 1 1 0 1 -0.364902 4.07999 17.7622
617 1 1 0 1 0.865498 4.30102 2.71024
618 1 1 0 1 -5.48255 8.6286 -1.63536
619 1 1 0 1 -2.36153 16.179 3.00312
620 1 1 0 1 1.46839 8.06669 2.86848
621 1 1 0 1 -4.18358 5.09437 4.43363
622 1 1 0 1 -7.85466 9.1589 8.34582
623 1 1 0 1 -9.20012 5.85152 2.84773
624 1 1 0 1 -2.66595 2.92478 4.78276
625 1 1 0 1 -3.79319 8.44172 8.80126
626 1 1 0 1 -1.02079 8.09481 11.2167
627 1 1 0 1 -5.49605 -0.287748 15.6313
628 1 1 0 1 3.96367 1.80274 6.503
629 1 1 0 1 -0.154327 9.92202 11.4651
630 1 1 0 1 2.77968 12.5601 14.6473
631 1 1 0 1 -1.6582 10.0165 11.3119
632 1 1 0 1 1.09534 3.25273 16.5623
633 1 1 0 1 -10.9113 10.4412 16.8908
634 1 1 0 1 -3.11208 6.59007 18.9191
635 1 1 0 1 -1.57518 6.4552 16.0204
636 1 1 0 1 -3.10858 4.59859 15.6536
637 1 1 0 1 -6.20316 3.44812 22.5463
638 1 1 0 1 -2.19063 6.64698 20.2079
639 1 1 0 1 -3.85853 4.10031 6.01786
640 1 1 0 1 1.44068 6.72266 0.465469
641 1 1 0 1 2.03385 4.63048 2.33329
642 1 1 0 1 -1.41102 7.21676 2.19037
643 1 1 0 1 -1.53155 13.3431 3.38876
644 1 1 0 1 -2.91598 4.67667 5.48531
645 1 1 0 1 -3.41796 8.26209 5.94044
646 1 1 0 1 -0.207239 2.57251 8.79597
647 1 1 0 1 -2.25995 9.23935 1.10142
648 1 1 0 1 -6.73967 9.37672 10.2534
649 1 1 0 1 -0.585882 10.8748 8.13032
650 1 1 0 1 2.69683 8.95395 11.2597
651 1 1 0 1 -0.0149845 8.89712 7.08032
652 1 1 0 1 -1.54626 14.2086 15.7869
653 1 1 0 1 -5.54347 14.0512 15.2008
654 1 1 0 1 1.748 9.5153 20.2145
655 1 1 0 1 -4.13203 7.47692 14.3915
656 1 1 0 1 -5.53112 4.20883 17.7072
657 1 1 0 1 1.42543 2.84688 18.3395
658 1 1 0 1 3.57615 9.37674 22.9687
659 1 1 0 1 -3.79146 6.72044 15.2964
660 1 1 0 1 0.42003 7.84823 20.1844
661 1 1 0 1 -3.54618 9.02402 0.560072
662 1 1 0 1 -2.29322 10.8478 -0.494051
663 1 1 0 1 -4.67124 4.59748 3.12231
664 1 1 0 1 -3.27281 10.038 6.3423
665 1 1 0 1 -7.72708 4.80963 4.85455
666 1 1 0 1 1.03225 10.1552 12.2144
667 1 1 0 1 -4.50889 6.11243 1.19481
668 1 1 0 1 -5.64614 4.92394 3.87413
669 1 1 0 1 -0.568201 8.0749 6.66925
670 1 1 0 1 -2.38558 8.70008 7.69595
671 1 1 0 1 0.798336 2.83859 9.47662
672 1 1 0 1 -3.63425 13.3804 14.5573
673 1 1 0 1 -2.92146 12.5648 14.8281
674 1 1 0 1 -1.57088 8.73848 15.2901
675 1 1 0 1 -1.59773 9.98814 17.6608
676 1 1 0 1 -5.08985 9.21294 15.9336
677 1 1 0 1 -2.20489 12.0272 20.2844
678 1 1 0 1 1.71056 4.04758 20.5118
679 1 1 0 1 -2.80473 7.67164 19.6062
680 1 1 0 1 -0.994995 6.29172 12.5959
681 1 1 0 1 -0.16023 9.42645 18.925
682 1 1 0 1 1.9906 7.45666 21.805
683 1 1 0 1 -0.262506 10.9093 3.6819
684 1 1 0 1 -1.66833 7.3502 1.06613
685 1 1 0 1 -1.3848 13.1825 11.4307
686 1 1 0 1 -0.10492 7.34414 5.80682
687 1 1 0 1 1.37257 18.7226 5.16243
688 1 1 0 1 -0.710279 14.5944 7.04124
689 1 1 0 1 -1.32106 7.79538 5.64104
690 1 1 0 1 -1.69069 7.10658 11.3906
691 1 1 0 1 0.966593 1.81899 7.23985
692 1 1 0 1 3.92387 8.01077 7.76451
693 1 1 0 1 -1.98485 5.04998 17.1586
694 1 1 0 1 -3.46594 14.5713 15.1679
695 1 1 0 1 -2.45777 10.5582 15.8824
696 1 1 0 1 -0.501388 5.63531 17.7382
697 1 1 0 1 -5.62315 9.34862 17.0847
698 1 1 0 1 -8.10191 10.3109 20.6865
699 1 1 0 1 0.297691 9.38785 19.9195
700 1 1 0 1 -1.20263 15.3547 15.4077
701 1 1 0 1 -0.86704 10.9915 18.6134
702 1 1 0 1 -3.68657 5.16274 16.5932
703 1 1 0 1 -1.56129 11.4564 17.9548
704 1 1 0 1 -2.14839 19.8804 21.6181
705 1 1 0 1 -2.02146 11.5392 3.93903
706 1 1 0 1 -2.45834 7.89139 1.92159
707 1 1 0 1 -2.4134 19.813 -1.60828
708 1 1 0 1 -0.268762 8.90396 -0.573413
709 1 1 0 1 -3.19321 9.59352 4.37252
710 1 1 0 1 -1.95924 13.3803 7.5593
711 1 1 0 1 -2.69651 9.06622 5.74847
712 1 1 0 1 -4.17431 11.3901 12.1166
713 1 1 0 1 -3.82383 13.8422 8.45679
714 1 1 0 1 1.98331 10.7146 6.77275
715 1 1 0 1 -5.64004 11.9633 13.2986
716 1 1 0 1 -2.61199 14.4026 15.9851
717 1 1 0 1 -3.40241 11.6735 12.9374
718 1 1 0 1 0.116716 12.5163 15.4617
719 1 1 0 1 -1.10915 9.29617 18.5448
720 1 1 0 1 0.227518 10.784 18.3121
721 1 1 0 1 -5.05618 14.5767 17.274
722 1 1 0 1 4.65355 15.1673 21.717
723 1 1 0 1 -0.817563 6.60157 16.6532
724 1 1 0 1 -2.63138 16.0616 19.5628
725 1 1 0 1 -0.758181 13.2175 24.6293
726 1 1 0 1 -2.27093 14.5696 25.6385
727 1 1 0 1 -0.7977 13.3996 1.3855
728 1 1 0 1 -2.45502 12.7816 -3.06539
729 1 1 0 1 -6.13002 9.57524 -1.66403
730 1 1 0 1 0.442051 17.0618 0.259693
731 1 1 0 1 -0.714172 14.597 3.60262
732 1 1 0 1 1.96535 10.4013 2.12269
733 1 1 0 1 -2.19451 9.66621 4.89607
734 1 1 0 1 -0.771232 8.29975 8.64429
735 1 1 0 1 -1.24649 16.3552 5.91871
736 1 1 0 1 -4.39306 12.8192 4.15426
737 1 1 0 1 0.0375086 10.2523 12.6556
738 1 1 0 1 6.58834 14.6311 8.91371
739 1 1 0 1 -2.88834 8.71729 12.3547
740 1 1 0 1 -2.76507 11.2704 19.2461
741 1 1 0 1 -0.769411 9.26397 14.785
742 1 1 0 1 0.918589 8.57586 20.8094
743 1 1 0 1 -0.632348 10.5738 21.3908
744 1 1 0 1 -0.0600434 12.0268 25.9411
745 1 1 0 1 0.499017 9.64707 20.991
746 1 1 0 1 -1.10185 9.71237 21.773
747 1 1 0 1 -0.618796 14.2907 22.1014
748 1 1 0 1 -0.56163 10.4618 23.5617
749 1 1 0 1 -1.20573 15.3194 6.31726
750 1 1 0 1 1.7397 8.75133 5.08815
751 1 1 0 1 -6.91675 12.0805 3.58388
752 1 1 0 1 -1.5078 17.9351 0.678424
753 1 1 0 1 0.0071634 13.0456 6.02612
754 1 1 0 1 0.636952 10.0317 1.66522
755 1 1 0 1 1.65933 14.6792 3.31833
756 1 1 0 1 -6.89002 18.8728 3.52297
757 1 1 0 1 -0.693415 12.6528 12.6709
758 1 1 0 1 -1.46832 11.8121 12.5844
759 1 1 0 1 -5.90297 8.7254 10.6484
760 1 1 0 1 0.854038 6.9869 14.8312
761 1 1 0 1 0.249537 14.9105 14.7035
762 1 1 0 1 -4.73456 13.9789 11.7473
763 1 1 0 1 -1.15245 15.2865 13.0704
764 1 1 0 1 -3.60426 17.0318 15.4553
765 1 1 0 1 -1.29547 12.6702 20.8089
766 1 1 0 1 0.602639 12.3442 17.0166
767 1 1 0 1 -3.66369 14.3875 21.7922
768 1 1 0 1 -2.9575 12.6006 22.6506
769 1 1 0 1 2.93438 11.1326 21.6526
770 1 1 0 1 -3.2895 16.2828 25.7129
771 1 1 0 1 -2.17584 17.1323 3.55459
772 1 1 0 1 -2.30319 13.5298 9.26975
773 1 1 0 1 -2.8276 13.4117 2.95775
774 1 1 0 1 0.85233 14.7731 8.61054
775 1 1 0 1 -5.56788 14.1151 1.97082
776 1 1 0 1 0.23271 12.8756 7.18587
777 1 1 0 1 -2.30064 16.8678 8.53527
778 1 1 0 1 -2.20679 12.0526 9.16832
779 1 1 0 1 1.01891 15.0072 13.7478
780 1 1 0 1 -4.1623 15.2514 11.7615
781 1 1 0 1 0.770942 12.8011 18.0949
782 1 1 0 1 -4.07261 15.9673 15.5875
783 1 1 0 1 -5.72723 18.5222 14.471
784 1 1 0 1 -2.70913 16.9313 20.2714
785 1 1 0 1 -4.46069 16.7508 16.8993
786 1 1 0 1 -2.91665 11.6312 22.0032
787 1 1 0 1 3.46936 15.1475 17.2991
788 1 1 0 1 -7.36959 18.4543 14.8655
789 1 1 0 1 -3.0119 17.3967 19.1036
790 1 1 0 1 1.32062 12.7708 24.1316
791 1 1 0 1 1.73458 11.4766 19.0113
792 1 1 0 1 1.85069 8.64828 21.3005
793 1 1 0 1 -7.14822 11.2051 2.96774
794 1 1 0 1 3.43455 16.9314 4.58317
795 1 1 0 1 1.21057 15.827 0.851167
796 1 1 0 1 -0.440971 18.6261 6.38123
797 1 1 0 1 -4.26101 17.8732 5.05002
798 1 1 0 1 -6.60657 17.4807 4.46068
799 1 1 0 1 -3.15071 16.7779 8.01714
800 1 1 0 1 3.53797 5.51656 4.55176
801 1 1 0 1 4.17781 12.2124 12.5848
802 1 1 0 1 -2.93291 17.5005 11.0831
803 1 1 0 1 -3.15111 15.2858 16.3409
804 1 1 0 1 -2.17073 15.0011 12.6431
805 1 1 0 1 -3.50589 16.3407 16.4082
806 1 1 0 1 0.844775 8.03708 7.02848
807 1 1 0 1 -3.94244 15.994 17.3652
808 1 1 0 1 2.38433 22.1245 12.5957
809 1 1 0 1 -4.60708 17.0219 15.8317