ITEM: TIMESTEP
17000
ITEM: NUMBER OF ATOMS
6752
ITEM: BOX BOUNDS pp pp pp
0.0000000000000000e+00 2.2000000000000000e+01
0.0000000000000000e+00 2.2000000000000000e+01
0.0000000000000000e+00 2.2000000000000000e+01
ITEM: ATOMS id mol type q mass xu yu zu
1 1 1 0 1 -4.8977 -6.73273 3.12769
2 1 1 0 1 -3.34392 2.10262 -1.02744
3 1 1 0 1 -3.5595 0.908344 4.97794
4 1 1 0 1 -8.22285 -2.05948 2.85476
5 1 1 0 1 2.53344 4.82034 2.51139
6 1 1 0 1 -8.63654 -0.579591 7.03715
7 1 1 0 1 3.85321 8.06422 3.62084
8 1 1 0 1 2.14144 -3.83392 11.7853
9 1 1 0 1 -0.190229 2.33423 11.3154
10 1 1 0 1 -9.42506 -0.468226 11.1486
11 1 1 0 1 -0.197692 3.46525 9.05518
12 1 1 0 1 -7.73939 -3.84631 15.2313
13 1 1 0 1 0.230753 3.49289 14.2353
14 1 1 0 1 -1.56411 11.8677 13.6151
15 1 1 0 1 -6.57314 1.41374 9.65348
16 1 1 0 1 -5.91232 -3.47321 14.65
17 1 1 0 1 -1.49064 -1.68136 15.9804
18 1 1 0 1 -3.26728 -1.90508 21.4631
19 1 1 0 1 -1.75968 6.83188 17.1842
20 1 1 0 1 0.518637 0.483704 17.1474
21 1 1 0 1 -7.75879 5.92669 15.6419
22 1 1 0 1 -6.03689 8.92222 20.7985
23 1 1 0 1 -7.76007 -0.836003 3.32455
24 1 1 0 1 -1.20183 3.63832 0.0450083
25 1 1 0 1 -2.24272 -0.0625735 -6.91734
26 1 1 0 1 0.370965 -2.48865 6.30184
27 1 1 0 1 -9.22658 -1.96538 9.30883
28 1 1 0 1 -4.79388 4.51018 0.118886
29 1 1 0 1 -2.20749 -2.27047 13.5982
30 1 1 0 1 -5.16042 -0.798094 14.0196
31 1 1 0 1 -3.86087 6.80773 13.2022
32 1 1 0 1 -5.4498 -3.73232 4.35009
33 1 1 0 1 -9.13564 1.97678 9.55029
34 1 1 0 1 -3.80243 5.80345 15.3604
35 1 1 0 1 -1.00636 1.83818 12.2497
36 1 1 0 1 0.590031 0.00322606 5.48788
37 1 1 0 1 -6.25285 -2.44661 17.1428
38 1 1 0 1 1.08475 -2.06581 21.397
39 1 1 0 1 -1.12317 3.14739 11.3126
40 1 1 0 1 -1.07258 7.15645 18.2408
41 1 1 0 1 -5.61368 0.1849 14.6743
42 1 1 0 1 -8.26731 1.12243 25.0328
43 1 1 0 1 -0.555069 10.5874 23.5518
44 1 1 0 1 -3.28449 9.1291 17.1207
45 1 1 0 1 -11.5561 6.42275 6.63155
46 1 1 0 1 -3.43409 2.67789 9.26261
47 1 1 0 1 -0.874288 2.62521 -3.04346
48 1 1 0 1 -9.57852 7.49606 4.71289
49 1 1 0 1 0.268581 4.47948 -2.12016
50 1 1 0 1 -2.69351 4.72083 -0.539228
51 1 1 0 1 -2.45571 3.5058 3.91717
52 1 1 0 1 1.29138 3.24833 14.2174
53 1 1 0 1 -4.27698 -0.369168 5.28264
54 1 1 0 1 -5.04361 -2.68623 14.622
55 1 1 0 1 -4.83696 3.9875 11.1016
56 1 1 0 1 -0.538952 1.60387 9.89189
57 1 1 0 1 -0.449452 10.2101 13.5329
58 1 1 0 1 -6.97376 13.1887 11.2289
59 1 1 0 1 -5.23146 1.17534 9.85952
60 1 1 0 1 -0.763596 2.98301 20.0474
61 1 1 0 1 -8.05069 7.0522 11.2377
62 1 1 0 1 1.60328 0.0394912 23.0594
63 1 1 0 1 -1.42388 7.99216 5.3941
64 1 1 0 1 -1.48059 -2.56489 15.0784
65 1 1 0 1 -6.99249 3.64751 19.409
66 1 1 0 1 -7.82136 3.16112 22.9666
67 1 1 0 1 -2.7877 -0.381297 -2.92551
68 1 1 0 1 -7.22663 4.39028 -5.00402
69 1 1 0 1 -4.63136 6.7391 -1.59082
70 1 1 0 1 -2.36875 8.38005 7.17646
71 1 1 0 1 1.21333 1.69148 6.52698
72 1 1 0 1 -12.4962 4.53688 1.98834
73 1 1 0 1 2.82413 1.20597 11.3497
74 1 1 0 1 -3.99976 2.69163 11.3503
75 1 1 0 1 -0.761996 1.37668 13.2219
76 1 1 0 1 -8.39795 -0.854041 9.56662
77 1 1 0 1 -5.16137 -2.05028 5.57713
78 1 1 0 1 1.05748 6.81707 11.7556
79 1 1 0 1 -4.97902 4.04748 13.1815
80 1 1 0 1 3.2246 -0.900292 13.0287
81 1 1 0 1 -1.82335 8.53596 17.8017
82 1 1 0 1 -4.46763 -2.43569 12.1103
83 1 1 0 1 -2.7283 -2.95979 17.6537
84 1 1 0 1 2.02663 6.32555 17.1123
85 1 1 0 1 -4.08537 2.51534 25.1749
86 1 1 0 1 -5.59746 0.956619 21.0305
87 1 1 0 1 -2.96177 -0.30604 21.3804
88 1 1 0 1 -4.4882 10.0049 21.7465
89 1 1 0 1 -3.8934 8.34079 0.782952
90 1 1 0 1 0.63694 11.056 4.93187
91 1 1 0 1 -4.80214 1.83296 8.26562
92 1 1 0 1 -7.37656 7.74289 4.63069
93 1 1 0 1 -3.61409 6.02928 7.86857
94 1 1 0 1 -2.339 -3.05201 4.18838
95 1 1 0 1 -6.00869 7.79962 6.92406
96 1 1 0 1 -2.65999 5.13007 10.0093
97 1 1 0 1 -0.295591 11.751 12.997
98 1 1 0 1 0.225304 5.8581 5.18522
99 1 1 0 1 -1.9837 6.05235 9.60605
100 1 1 0 1 0.355084 -0.387287 6.61075
101 1 1 0 1 -5.1655 5.30063 8.33364
102 1 1 0 1 -4.55398 7.1436 10.2566
103 1 1 0 1 -2.79198 9.21007 9.61336
104 1 1 0 1 -4.1629 14.6308 13.3131
105 1 1 0 1 -2.41681 7.91324 4.09526
106 1 1 0 1 -0.211838 3.56015 22.4144
107 1 1 0 1 -6.43373 10.7772 14.6451
108 1 1 0 1 -1.93753 10.7208 16.0288
109 1 1 0 1 -6.9718 5.3673 20.0315
110 1 1 0 1 -6.69359 7.02026 22.7109
111 1 1 0 1 -3.36833 3.63242 1.36972
112 1 1 0 1 -4.65839 4.42206 -2.72842
113 1 1 0 1 0.265532 14.2189 10.0392
114 1 1 0 1 -0.130218 8.15194 4.96326
115 1 1 0 1 -3.22684 11.9548 4.67413
116 1 1 0 1 -1.49924 13.6502 4.583
117 1 1 0 1 -2.85313 7.48678 4.94919
118 1 1 0 1 -2.9615 1.1274 8.57868
119 1 1 0 1 -2.78925 0.131626 10.087
120 1 1 0 1 -2.99 1.34328 11.1207
121 1 1 0 1 0.475889 2.26367 5.41256
122 1 1 0 1 -3.60183 5.57088 9.54715
123 1 1 0 1 -5.48429 7.16804 13.5465
124 1 1 0 1 -6.16637 10.0906 13.8249
125 1 1 0 1 -7.42805 8.69121 6.75787
126 1 1 0 1 -7.85155 5.94613 18.3121
127 1 1 0 1 -1.21134 9.65529 19.2198
128 1 1 0 1 -8.23705 14.1611 11.7715
129 1 1 0 1 -2.61227 5.96992 21.5989
130 1 1 0 1 -8.97461 5.99447 17.7347
131 1 1 0 1 -6.02113 1.09708 12.3944
132 1 1 0 1 -2.9493 5.09582 25.0867
133 1 1 0 1 0.147377 7.47955 3.249
134 1 1 0 1 -7.14733 7.44134 6.82295
135 1 1 0 1 -6.52312 0.287288 0.675672
136 1 1 0 1 -4.67376 10.1623 1.74832
137 1 1 0 1 -8.83834 7.0278 6.59337
138 1 1 0 1 -9.50722 9.20574 10.2758
139 1 1 0 1 3.21459 6.9031 4.75697
140 1 1 0 1 -9.09457 6.73742 3.87579
141 1 1 0 1 4.34836 6.54381 0.0654692
142 1 1 0 1 -3.44704 3.40151 13.6015
143 1 1 0 1 -4.43676 4.37176 15.2802
144 1 1 0 1 1.73671 2.14249 9.52528
145 1 1 0 1 -6.04659 8.0627 18.7234
146 1 1 0 1 -3.82103 14.0417 21.5075
147 1 1 0 1 -3.59626 17.3085 13.8134
148 1 1 0 1 -7.43733 15.9039 13.2287
149 1 1 0 1 -4.57442 7.54137 19.8307
150 1 1 0 1 -7.71547 9.66722 11.9945
151 1 1 0 1 -6.07743 2.40931 21.6786
152 1 1 0 1 -5.65438 6.36897 18.7668
153 1 1 0 1 -1.62783 5.85936 20.1227
154 1 1 0 1 -2.96807 3.68415 27.7675
155 1 1 0 1 -0.186776 4.81026 -6.67208
156 1 1 0 1 -1.21816 4.70646 -1.74059
157 1 1 0 1 -2.17882 8.88235 0.873684
158 1 1 0 1 -1.61897 8.81695 3.50144
159 1 1 0 1 -6.66556 10.998 0.125555
160 1 1 0 1 -6.04174 1.0146 6.17312
161 1 1 0 1 -0.688835 12.4397 4.13877
162 1 1 0 1 -0.977134 4.03047 10.9169
163 1 1 0 1 1.37717 3.42239 8.88723
164 1 1 0 1 -5.62091 4.66177 11.8571
165 1 1 0 1 -1.43604 2.12824 10.1016
166 1 1 0 1 -2.5992 10.0286 19.0967
167 1 1 0 1 -1.55012 13.5106 17.8837
168 1 1 0 1 -4.10155 8.48213 19.6971
169 1 1 0 1 -5.77336 10.5152 18.8421
170 1 1 0 1 2.76367 7.04722 18.6714
171 1 1 0 1 -1.59107 12.0346 21.437
172 1 1 0 1 -1.0875 8.8769 20.1557
173 1 1 0 1 -1.18539 9.90425 15.9332
174 1 1 0 1 2.20391 7.12737 24.6533
175 1 1 0 1 -7.29813 10.5649 21.3208
176 1 1 0 1 1.25317 4.26413 26.3987
177 1 1 0 1 -8.48075 2.38411 0.311849
178 1 1 0 1 -0.612178 14.1819 7.43919
179 1 1 0 1 -6.43008 15.2688 -0.699439
180 1 1 0 1 2.27028 13.4138 3.71858
181 1 1 0 1 -4.45164 14.7516 6.7514
182 1 1 0 1 -3.46191 12.2135 7.01368
183 1 1 0 1 -6.9682 11.0982 4.20657
184 1 1 0 1 -5.36141 4.20812 8.86889
185 1 1 0 1 -10.256 0.680512 7.77211
186 1 1 0 1 -10.7905 15.1139 5.90023
187 1 1 0 1 -8.49605 15.1247 11.7061
188 1 1 0 1 -2.6366 1.83718 12.0839
189 1 1 0 1 1.46449 11.5139 13.9691
190 1 1 0 1 -7.74234 6.56277 13.3165
191 1 1 0 1 -2.28858 9.20226 19.8494
192 1 1 0 1 -2.58185 9.66791 18.0787
193 1 1 0 1 -1.1877 5.21842 17.1359
194 1 1 0 1 6.00574 12.1669 22.5877
195 1 1 0 1 -5.02121 8.60596 15.7083
196 1 1 0 1 -0.147468 6.40295 18.4491
197 1 1 0 1 -3.48572 9.27363 16.0094
198 1 1 0 1 8.66801 9.69603 24.8835
199 1 1 0 1 3.40979 9.32039 0.418388
200 1 1 0 1 4.77623 6.33689 5.52667
201 1 1 0 1 -6.12761 10.426 -0.789623
202 1 1 0 1 -3.2734 6.08114 6.59132
203 1 1 0 1 -5.00176 9.99753 4.87978
204 1 1 0 1 -3.52056 12.5908 10.5693
205 1 1 0 1 -0.13742 8.42513 3.76292
206 1 1 0 1 -0.71136 11.2339 4.84247
207 1 1 0 1 -7.74017 7.18975 2.76959
208 1 1 0 1 -5.71341 5.06973 13.6589
209 1 1 0 1 -4.93679 2.73206 5.84036
210 1 1 0 1 -6.65007 9.30358 11.6618
211 1 1 0 1 0.603273 6.45219 9.96808
212 1 1 0 1 -8.37937 5.2098 9.31683
213 1 1 0 1 3.24685 8.39837 23.2632
214 1 1 0 1 -12.5943 17.7494 18.2615
215 1 1 0 1 -5.01503 9.4682 19.1807
216 1 1 0 1 -4.74679 8.34893 18.8184
217 1 1 0 1 -8.70582 15.8105 23.6439
218 1 1 0 1 -2.52052 9.38011 22.0243
219 1 1 0 1 1.97649 12.6653 24.0641
220 1 1 0 1 1.13291 13.7773 22.6356
221 1 1 0 1 6.64466 11.2232 -3.38141
222 1 1 0 1 -5.8213 12.7451 1.3079
223 1 1 0 1 -10.9948 11.5355 1.97271
224 1 1 0 1 -4.99053 8.80478 -0.734205
225 1 1 0 1 -7.37831 14.7277 6.39443
226 1 1 0 1 -11.0408 14.7424 8.8872
227 1 1 0 1 -8.80826 14.6084 3.99923
228 1 1 0 1 -8.33178 17.3126 6.62719
229 1 1 0 1 0.773716 9.49243 6.51429
230 1 1 0 1 -5.48323 13.8718 8.75429
231 1 1 0 1 -6.29196 11.9702 14.4504
232 1 1 0 1 -0.609805 0.657866 13.9413
233 1 1 0 1 -3.57804 11.6392 11.3723
234 1 1 0 1 -10.5243 8.57728 11.8179
235 1 1 0 1 -4.22871 11.1469 14.8954
236 1 1 0 1 -9.70768 14.5279 16.1294
237 1 1 0 1 -8.18239 13.7774 19.371
238 1 1 0 1 -6.66098 13.5885 14.3381
239 1 1 0 1 -6.70213 12.0008 17.3622
240 1 1 0 1 -5.50612 12.5767 15.7404
241 1 1 0 1 -5.03672 8.60573 20.0114
242 1 1 0 1 0.42492 3.60971 24.1682
243 1 1 0 1 -0.781935 14.5683 3.11077
244 1 1 0 1 -2.88543 14.4307 -0.0705813
245 1 1 0 1 -5.13092 15.7748 1.07391
246 1 1 0 1 -0.279658 9.68221 6.50793
247 1 1 0 1 -6.11861 12.2513 6.53433
248 1 1 0 1 -1.62388 2.48326 6.10481
249 1 1 0 1 -8.24108 13.0537 7.59547
250 1 1 0 1 -4.40059 5.97144 6.82065
251 1 1 0 1 -2.28933 8.14751 6.09129
252 1 1 0 1 -2.71301 4.70929 6.03262
253 1 1 0 1 -1.57111 -0.489026 15.898
254 1 1 0 1 0.853606 14.9403 15.615
255 1 1 0 1 -6.95922 4.44755 8.22612
256 1 1 0 1 -10.0706 16.0076 10.6263
257 1 1 0 1 1.06261 16.6045 18.4438
258 1 1 0 1 -2.471 14.5144 14.9634
259 1 1 0 1 -3.51233 15.0063 20.9833
260 1 1 0 1 -2.37899 15.3805 18.0315
261 1 1 0 1 -3.05894 8.83897 19.1986
262 1 1 0 1 -2.49384 11.6284 23.6876
263 1 1 0 1 2.89082 14.5945 18.4914
264 1 1 0 1 -1.75784 16.4559 23.2657
265 1 1 0 1 -3.57185 12.3558 -0.470834
266 1 1 0 1 5.60878 15.4578 3.94701
267 1 1 0 1 -3.01736 17.6126 8.16576
268 1 1 0 1 -4.66566 5.8822 -0.492793
269 1 1 0 1 0.621829 9.33338 11.4602
270 1 1 0 1 -1.80755 15.1928 -0.795004
271 1 1 0 1 -4.00263 4.57871 9.84325
272 1 1 0 1 -8.18365 11.0685 13.4511
273 1 1 0 1 -6.18064 11.5431 7.60778
274 1 1 0 1 -8.99047 9.77941 9.10504
275 1 1 0 1 -10.0837 6.46355 11.0027
276 1 1 0 1 -3.32152 11.5525 13.2547
277 1 1 0 1 -2.35007 10.0808 13.0026
278 1 1 0 1 -0.544214 13.3798 14.2213
279 1 1 0 1 -3.20583 15.8156 12.4023
280 1 1 0 1 -6.52075 13.1271 7.38827
281 1 1 0 1 -0.976497 10.5925 25.6723
282 1 1 0 1 -7.96297 14.1071 10.5954
283 1 1 0 1 -0.916971 14.3658 14.3008
284 1 1 0 1 -4.76268 12.3018 17.2892
285 1 1 0 1 -5.9244 8.96754 17.4942
286 1 1 0 1 -3.40819 10.7564 18.3309
287 1 1 0 1 -3.59641 19.015 3.46394
288 1 1 0 1 -1.42616 17.078 -0.231199
289 1 1 0 1 -7.03118 4.87591 4.95539
290 1 1 0 1 -2.67374 10.6848 3.18553
291 1 1 0 1 -9.05716 6.44874 8.731
292 1 1 0 1 -8.45082 14.4872 7.85466
293 1 1 0 1 1.84436 9.25035 5.76213
294 1 1 0 1 -2.7927 13.0773 8.90323
295 1 1 0 1 -4.54206 8.48068 11.7435
296 1 1 0 1 -3.52103 12.6319 11.9677
297 1 1 0 1 -5.30558 11.2735 6.81189
298 1 1 0 1 -9.46217 5.53348 16.9522
299 1 1 0 1 0.471993 17.2424 13.5663
300 1 1 0 1 -1.10234 19.172 20.8006
301 1 1 0 1 -6.42494 16.5807 16.7135
302 1 1 0 1 -5.7662 14.7394 17.5698
303 1 1 0 1 -6.5495 16.497 10.6324
304 1 1 0 1 0.165954 9.99496 7.49433
305 1 1 0 1 4.14631 10.8207 16.1938
306 1 1 0 1 1.18483 14.3632 24.351
307 1 1 0 1 1.45555 13.7305 15.2625
308 1 1 0 1 2.00577 23.1069 32.5263
309 1 1 0 1 -1.95632 14.7072 2.64159
310 1 1 0 1 1.49108 14.8879 4.09546
311 1 1 0 1 -8.60477 14.4687 -0.906285
312 1 1 0 1 -8.45832 6.08164 2.86927
313 1 1 0 1 -8.18068 14.4299 0.973014
314 1 1 0 1 0.177304 13.2383 3.86427
315 1 1 0 1 -0.0386947 5.89571 7.8058
316 1 1 0 1 -8.37913 14.3734 2.90979
317 1 1 0 1 -6.0284 13.7108 9.61386
318 1 1 0 1 -2.076 13.918 12.1299
319 1 1 0 1 -2.8007 11.9091 7.85695
320 1 1 0 1 0.335781 20.4999 9.86631
321 1 1 0 1 -5.93583 15.997 13.9425
322 1 1 0 1 -1.36427 12.0389 16.6764
323 1 1 0 1 -4.52847 15.1191 12.4164
324 1 1 0 1 -2.47905 10.3685 6.33651
325 1 1 0 1 0.267745 12.6373 7.66647
326 1 1 0 1 -8.00476 16.0016 18.7556
327 1 1 0 1 -4.49458 14.9089 20.4429
328 1 1 0 1 -2.67468 18.3802 20.7762
329 1 1 0 1 3.65799 9.80158 23.2071
330 1 1 0 1 1.55996 14.5002 23.2791
331 1 1 0 1 -3.94627 14.6159 8.78772
332 1 1 0 1 -2.45752 20.8174 5.2346
333 1 1 0 1 -4.15095 11.3184 6.73962
334 1 1 0 1 -4.74103 15.7784 2.08226
335 1 1 0 1 -2.34402 14.0315 8.522
336 1 1 0 1 -5.87057 11.0978 5.67467
337 1 1 0 1 -2.29137 10.545 7.59146
338 1 1 0 1 -0.771092 12.5885 11.7872
339 1 1 0 1 -8.52967 11.0455 5.8937
340 1 1 0 1 1.68824 9.79889 8.89769
341 1 1 0 1 -6.02679 5.8752 9.30627
342 1 1 0 1 -5.50534 14.4922 13.2017
343 1 1 0 1 -3.86656 13.2124 5.83477
344 1 1 0 1 -6.05717 13.4921 12.5022
345 1 1 0 1 -7.15101 17.5961 14.2119
346 1 1 0 1 5.21864 17.8995 16.7818
347 1 1 0 1 1.72324 17.8627 18.7788
348 1 1 0 1 -1.0421 11.2359 20.2975
349 1 1 0 1 -1.03032 17.5784 16.8268
350 1 1 0 1 -0.148557 17.2713 20.4002
351 1 1 0 1 -7.53253 19.4312 17.0875
352 1 1 0 1 -1.53249 17.8732 26.8611
353 1 1 0 1 -8.1957 19.1194 -0.809638
354 1 1 0 1 3.50622 17.8259 2.25661
355 1 1 0 1 -7.0953 9.13904 5.7204
356 1 1 0 1 -5.07989 10.4073 6.0005
357 1 1 0 1 -0.300053 16.4647 4.80697
358 1 1 0 1 -1.37143 13.4592 6.83215
359 1 1 0 1 -6.83436 14.0751 4.49822
360 1 1 0 1 -1.51093 13.6457 8.07412
361 1 1 0 1 -4.59315 19.1681 13.0343
362 1 1 0 1 0.117114 12.2543 9.02644
363 1 1 0 1 3.89131 13.1017 8.38262
364 1 1 0 1 4.68239 16.0298 10.1623
365 1 1 0 1 -2.7466 10.1133 8.68278
366 1 1 0 1 -8.00978 16.7001 13.7358
367 1 1 0 1 -1.4446 10.602 9.81996
368 1 1 0 1 -3.384 19.8981 17.4573
369 1 1 0 1 -5.0998 9.79059 10.8471
370 1 1 0 1 -2.20689 6.1847 10.7228
371 1 1 0 1 -2.88177 19.92 26.1296
372 1 1 0 1 -3.2037 13.358 19.0324
373 1 1 0 1 -6.78031 13.2554 21.2341
374 1 1 0 1 -3.20126 13.6569 28.5173
375 1 1 0 1 -5.58417 6.8434 4.31655
376 1 1 0 1 -4.82226 15.7054 -0.975
377 1 1 0 1 -9.16617 13.6776 -0.223328
378 1 1 0 1 -8.22011 16.2187 5.05185
379 1 1 0 1 -2.32681 16.7821 -3.22618
380 1 1 0 1 -5.81239 15.6248 2.02013
381 1 1 0 1 -5.02749 14.1357 7.69035
382 1 1 0 1 -12.5912 17.2668 14.8035
383 1 1 0 1 -4.14154 18.1484 12.3196
384 1 1 0 1 0.544537 11.1755 9.10161
385 1 1 0 1 -3.18657 17.1282 10.9071
386 1 1 0 1 -4.50281 13.2649 8.0561
387 1 1 0 1 -8.7735 13.8276 15.7549
388 1 1 0 1 -5.07303 13.4477 17.7027
389 1 1 0 1 -5.39597 15.0798 14.0842
390 1 1 0 1 -2.05065 15.7875 18.8539
391 1 1 0 1 -4.36865 18.9841 18.893
392 1 1 0 1 -8.43302 16.7425 9.49536
393 1 1 0 1 -4.03671 10.1068 14.4216
394 1 1 0 1 -5.19404 19.8707 20.7485
395 1 1 0 1 -13.0342 14.7374 14.7599
396 1 1 0 1 -3.66616 13.548 24.9946
397 1 1 0 1 -2.86012 20.3526 1.90705
398 1 1 0 1 -2.44815 25.6999 0.514922
399 1 1 0 1 -3.733 16.6474 -2.16291
400 1 1 0 1 -3.33504 8.78741 4.0009
401 1 1 0 1 2.77189 14.0441 9.14316
402 1 1 0 1 -5.28203 15.4901 9.85554
403 1 1 0 1 1.45366 15.9928 10.9467
404 1 1 0 1 -5.03456 27.1206 5.25668
405 1 1 0 1 -12.8995 15.4161 8.20962
406 1 1 0 1 -6.63027 15.537 8.41715
407 1 1 0 1 -3.11319 15.646 6.89614
408 1 1 0 1 -6.90023 18.8632 8.20852
409 1 1 0 1 -7.79132 13.4787 14.7991
410 1 1 0 1 -5.69765 6.53969 8.44035
411 1 1 0 1 0.720486 15.3425 11.6551
412 1 1 0 1 -9.58512 14.683 7.05709
413 1 1 0 1 -7.82103 16.8879 19.8128
414 1 1 0 1 -4.97496 12.3583 21.3389
415 1 1 0 1 -3.57085 15.7069 23.1287
416 1 1 0 1 -4.90427 12.9504 25.1084
417 1 1 0 1 4.54368 17.4873 23.5601
418 1 1 0 1 1.43114 13.1089 26.6745
419 1 1 0 1 -6.74811 18.2304 5.9976
420 1 1 0 1 -3.51762 26.8404 11.9107
421 1 1 0 1 -7.81797 18.5424 5.2775
422 1 1 0 1 -4.33573 8.75313 1.99822
423 1 1 0 1 -3.84753 23.6488 8.76821
424 1 1 0 1 -4.1298 17.736 9.3819
425 1 1 0 1 -3.31352 14.8191 4.26603
426 1 1 0 1 -4.02002 21.8309 -0.558049
427 1 1 0 1 -4.10936 22.2426 7.03241
428 1 1 0 1 3.46221 19.3122 2.12895
429 1 1 0 1 -6.29127 24.4822 5.00074
430 1 1 0 1 1.25743 15.7137 9.78835
431 1 1 0 1 -9.30561 16.7838 14.8884
432 1 1 0 1 -1.72337 26.7413 14.2184
433 1 1 0 1 -3.64589 17.0089 12.4721
434 1 1 0 1 -3.44254 10.0482 12.8495
435 1 1 0 1 -4.02472 9.70132 20.6468
436 1 1 0 1 -8.95266 16.1577 17.134
437 1 1 0 1 -3.49856 17.4343 14.8216
438 1 1 0 1 -5.27133 19.098 17.2194
439 1 1 0 1 -3.76718 20.9642 20.9913
440 1 1 0 1 -4.03074 13.5384 22.532
441 1 1 0 1 -3.31792 18.6465 -3.34802
442 1 1 0 1 -4.78856 22.609 8.05591
443 1 1 0 1 -2.89737 18.4877 1.33713
444 1 1 0 1 -3.64212 25.0583 -0.843695
445 1 1 0 1 -5.5623 14.2155 4.5107
446 1 1 0 1 0.212146 6.0962 10.8784
447 1 1 0 1 -2.38215 11.8526 5.87181
448 1 1 0 1 -8.3921 15.6279 10.7604
449 1 1 0 1 -5.20528 21.2214 10.3048
450 1 1 0 1 -2.00844 13.867 21.4664
451 1 1 0 1 -7.82614 17.717 10.818
452 1 1 0 1 -5.21153 15.7046 17.573
453 1 1 0 1 -5.27597 17.2393 18.4176
454 1 1 0 1 2.81892 24.9107 16.0544
455 1 1 0 1 -3.87181 6.80408 6.46829
456 1 1 0 1 -2.32966 13.9734 13.4234
457 1 1 0 1 -9.41065 24.1357 11.0797
458 1 1 0 1 -10.2588 14.6473 17.2038
459 1 1 0 1 -6.64908 15.7677 17.5022
460 1 1 0 1 -0.991059 12.1218 19.3826
461 1 1 0 1 1.02804 22.3344 10.4509
462 1 1 0 1 4.40797 23.5955 20.4586
463 1 1 0 1 0.524442 20.0962 -6.19303
464 1 1 0 1 -0.588403 20.1155 9.04213
465 1 1 0 1 4.70434 25.2449 -0.169368
466 1 1 0 1 2.66316 25.4656 2.47525
467 1 1 0 1 -6.37432 18.5997 9.95996
468 1 1 0 1 -3.1099 21.0323 4.28611
469 1 1 0 1 -3.9584 13.8741 10.9581
470 1 1 0 1 -0.672508 20.8867 6.22947
471 1 1 0 1 -3.62682 8.34195 6.52602
472 1 1 0 1 2.68111 27.4172 12.3808
473 1 1 0 1 -3.77107 18.948 9.61659
474 1 1 0 1 1.24756 17.2348 11.3594
475 1 1 0 1 0.870331 14.9392 14.0069
476 1 1 0 1 2.31079 22.5037 19.5453
477 1 1 0 1 -0.388922 19.1114 15.6204
478 1 1 0 1 -0.929094 22.6296 15.3147
479 1 1 0 1 -4.37319 29.7648 15.7172
480 1 1 0 1 2.4233 20.6517 18.1532
481 1 1 0 1 -1.50341 20.6409 17.1026
482 1 1 0 1 -6.06355 30.717 15.9679
483 1 1 0 1 -1.65184 20.2166 29.1985
484 1 1 0 1 -2.53261 22.2512 25.4224
485 1 1 0 1 -1.33805 -6.2484 4.062
486 1 1 0 1 -0.950209 5.41548 -7.36669
487 1 1 0 1 -1.10907 5.90078 -0.959282
488 1 1 0 1 -2.87619 -0.0078655 1.87389
489 1 1 0 1 -1.53627 3.59435 2.03587
490 1 1 0 1 -5.84308 -2.29945 3.33414
491 1 1 0 1 -3.30555 1.70618 10.1116
492 1 1 0 1 -1.53068 -7.94331 10.4892
493 1 1 0 1 -0.540031 -2.75308 9.88379
494 1 1 0 1 -2.94054 -1.32962 3.31538
495 1 1 0 1 -6.45133 5.15578 16.7713
496 1 1 0 1 -1.84586 7.53726 14.9938
497 1 1 0 1 -4.45813 -6.46833 13.5503
498 1 1 0 1 -3.15748 2.72038 18.9147
499 1 1 0 1 -1.96941 1.61002 8.55627
500 1 1 0 1 -5.51375 -4.49293 17.4234
501 1 1 0 1 -1.61093 -3.27827 9.45557
502 1 1 0 1 1.54828 -8.26055 19.9674
503 1 1 0 1 -4.35123 8.99067 16.6902
504 1 1 0 1 -1.65832 0.262951 12.3826
505 1 1 0 1 -6.05989 -3.04665 16.2874
506 1 1 0 1 -2.23049 4.05482 16.7753
507 1 1 0 1 -3.70313 3.03392 -1.95333
508 1 1 0 1 -2.53519 2.64486 2.76946
509 1 1 0 1 -1.1015 4.64387 4.10963
510 1 1 0 1 -4.32389 -1.87559 -0.173525
511 1 1 0 1 3.54828 1.44178 1.28264
512 1 1 0 1 -3.74417 7.25589 7.74015
513 1 1 0 1 -2.13288 -3.93884 7.24705
514 1 1 0 1 -2.41185 1.42029 2.94533
515 1 1 0 1 5.81387 7.39604 4.24125
516 1 1 0 1 -6.22626 0.892739 13.6294
517 1 1 0 1 -4.36042 -0.950237 9.65682
518 1 1 0 1 0.140127 1.69887 6.33257
519 1 1 0 1 -1.02683 3.61642 18.5936
520 1 1 0 1 0.678822 -0.647689 10.8446
521 1 1 0 1 -0.812722 6.06047 10.3616
522 1 1 0 1 -6.93291 8.07232 9.82842
523 1 1 0 1 2.68388 -0.0679555 13.2329
524 1 1 0 1 -2.23583 3.20219 14.6664
525 1 1 0 1 -4.99826 2.19409 24.7533
526 1 1 0 1 2.90322 -4.91862 24.6397
527 1 1 0 1 -0.801831 7.16317 16.4992
528 1 1 0 1 3.46772 5.02482 23.4209
529 1 1 0 1 9.85006 7.65508 3.25061
530 1 1 0 1 1.0833 0.167361 -5.87701
531 1 1 0 1 -0.236678 7.46126 -3.37558
532 1 1 0 1 -0.893943 -2.77574 2.256
533 1 1 0 1 -5.57784 2.75561 -1.39258
534 1 1 0 1 -2.18709 -0.0999925 6.33288
535 1 1 0 1 1.98602 4.07872 0.491307
536 1 1 0 1 -1.33379 6.48626 2.70251
537 1 1 0 1 -3.58992 1.67385 6.0933
538 1 1 0 1 -6.50548 -2.72452 12.166
539 1 1 0 1 -2.42767 4.86881 15.0067
540 1 1 0 1 0.569075 5.30345 11.4975
541 1 1 0 1 -5.72249 8.1202 14.0209
542 1 1 0 1 -4.63774 6.67613 12.4531
543 1 1 0 1 -8.53868 8.3036 13.1384
544 1 1 0 1 0.82414 4.95099 12.5137
545 1 1 0 1 0.0995869 4.71353 13.6431
546 1 1 0 1 0.413395 -1.57936 14.3272
547 1 1 0 1 -0.869705 0.746309 19.828
548 1 1 0 1 -0.782382 8.71723 27.7271
549 1 1 0 1 -1.74546 7.67912 21.7158
550 1 1 0 1 -3.52885 6.15475 22.3285
551 1 1 0 1 -1.16879 8.83118 0.0271064
552 1 1 0 1 -4.28397 5.4577 -2.2384
553 1 1 0 1 -1.18724 8.32275 2.38723
554 1 1 0 1 1.68843 4.64988 -2.24733
555 1 1 0 1 -1.27433 7.96548 -2.25866
556 1 1 0 1 -0.479459 3.78852 4.52224
557 1 1 0 1 3.6887 2.76909 4.33453
558 1 1 0 1 1.8304 2.31561 7.21275
559 1 1 0 1 -2.62258 -1.50419 11.6139
560 1 1 0 1 -3.95615 -1.3719 3.23005
561 1 1 0 1 -0.267409 3.25465 15.2274
562 1 1 0 1 2.7932 4.58532 16.5697
563 1 1 0 1 -2.61962 2.44298 13.1066
564 1 1 0 1 -4.63584 -3.08342 8.91561
565 1 1 0 1 6.72822 4.2721 16.9145
566 1 1 0 1 3.86377 6.32282 15.4076
567 1 1 0 1 -0.697645 6.28934 17.2981
568 1 1 0 1 5.31921 6.84134 16.6296
569 1 1 0 1 1.80126 6.82961 18.0565
570 1 1 0 1 -5.15813 2.83572 22.6746
571 1 1 0 1 4.32378 5.87739 20.4316
572 1 1 0 1 0.168363 4.0828 21.6377
573 1 1 0 1 -2.61769 6.99828 0.484519
574 1 1 0 1 -2.92891 5.37975 8.58998
575 1 1 0 1 -3.92077 0.582723 -2.78476
576 1 1 0 1 -3.06016 5.15571 -1.60569
577 1 1 0 1 -3.95765 2.02469 5.03655
578 1 1 0 1 -4.14749 10.935 13.1214
579 1 1 0 1 -4.29355 4.08929 7.08125
580 1 1 0 1 0.116391 1.48371 11.8268
581 1 1 0 1 -2.27208 9.03583 12.702
582 1 1 0 1 0.883931 2.74137 11.1202
583 1 1 0 1 -5.60172 7.89189 12.2074
584 1 1 0 1 -3.04021 10.3473 16.4698
585 1 1 0 1 -8.87018 2.18327 15.6837
586 1 1 0 1 2.1952 14.6171 15.5007
587 1 1 0 1 -6.90562 14.3282 13.576
588 1 1 0 1 -5.69837 3.60426 19.4741
589 1 1 0 1 -7.79022 4.74312 18.2466
590 1 1 0 1 -7.29197 6.95959 15.2168
591 1 1 0 1 -4.26641 5.33462 13.8921
592 1 1 0 1 0.167125 -0.0421143 23.4536
593 1 1 0 1 -0.0849002 6.44499 16.4791
594 1 1 0 1 -6.75138 -3.34172 20.3727
595 1 1 0 1 -0.350809 5.79932 -6.41013
596 1 1 0 1 2.53102 8.20263 4.17068
597 1 1 0 1 -8.25881 1.93897 5.02503
598 1 1 0 1 3.22917 6.98992 2.62109
599 1 1 0 1 3.18309 9.3777 2.61695
600 1 1 0 1 1.26378 9.91396 3.39171
601 1 1 0 1 -4.90077 6.81758 5.60041
602 1 1 0 1 1.07734 -3.91032 3.40133
603 1 1 0 1 3.27496 -3.04354 13.3046
604 1 1 0 1 6.19672 6.04743 13.4645
605 1 1 0 1 1.63744 5.41016 11.2968
606 1 1 0 1 -7.36697 -3.32323 14.2878
607 1 1 0 1 -2.71222 7.12164 8.70988
608 1 1 0 1 -0.363508 -1.81274 10.5442
609 1 1 0 1 4.3896 9.84139 15.969
610 1 1 0 1 1.15053 5.55334 13.9455
611 1 1 0 1 -0.459842 4.0886 10.0104
612 1 1 0 1 4.12634 3.04759 20.5744
613 1 1 0 1 -2.57223 2.81065 15.6154
614 1 1 0 1 -3.64586 6.08984 25.6293
615 1 1 0 1 -10.1268 5.88334 21.0982
616 1 1 0 1 -3.47781 7.66461 19.5325
617 1 1 0 1 0.895707 3.46236 -1.25863
618 1 1 0 1 -7.40894 6.89477 -1.53446
619 1 1 0 1 -0.827835 16.5966 3.41152
620 1 1 0 1 2.70402 8.91172 6.08294
621 1 1 0 1 -2.75908 6.40393 4.52576
622 1 1 0 1 -4.67194 4.95482 6.33272
623 1 1 0 1 -4.64281 7.78818 3.66052
624 1 1 0 1 -0.0965075 3.84002 3.40058
625 1 1 0 1 -5.57072 5.54783 6.28373
626 1 1 0 1 -0.283469 8.30482 14.0308
627 1 1 0 1 -4.68731 0.505286 17.1267
628 1 1 0 1 2.34471 0.647559 4.48887
629 1 1 0 1 0.817599 9.55577 16.3099
630 1 1 0 1 1.61875 12.4753 11.8438
631 1 1 0 1 0.696994 10.7583 15.6491
632 1 1 0 1 4.20545 5.8695 18.143
633 1 1 0 1 -14.1733 8.90788 16.8772
634 1 1 0 1 -4.09085 7.51853 18.6329
635 1 1 0 1 2.36844 5.68072 16.3075
636 1 1 0 1 -0.903335 4.32715 17.8791
637 1 1 0 1 -4.13728 2.15339 19.4409
638 1 1 0 1 -2.62393 3.82072 18.5819
639 1 1 0 1 -3.00496 0.556652 7.14521
640 1 1 0 1 0.828024 8.67452 4.2491
641 1 1 0 1 6.56438 5.68214 0.560938
642 1 1 0 1 3.71945 11.1311 6.20422
643 1 1 0 1 -0.880938 10.4509 7.56089
644 1 1 0 1 -3.79429 7.12228 1.5263
645 1 1 0 1 -1.34687 5.41782 6.6209
646 1 1 0 1 2.39758 3.18812 7.24773
647 1 1 0 1 -3.70919 7.79723 -1.42663
648 1 1 0 1 -4.89141 11.1857 9.23534
649 1 1 0 1 -4.60065 10.5279 8.49946
650 1 1 0 1 2.59517 8.53273 11.592
651 1 1 0 1 0.183946 6.6608 8.5568
652 1 1 0 1 -4.4469 14.9567 15.8778
653 1 1 0 1 -5.69426 18.8997 13.5687
654 1 1 0 1 2.72935 9.91351 21.3978
655 1 1 0 1 -4.41991 9.0006 9.61217
656 1 1 0 1 -6.57231 6.20897 17.1387
657 1 1 0 1 1.5745 8.94074 16.3581
658 1 1 0 1 4.4743 11.7189 25.3607
659 1 1 0 1 -2.78834 8.54143 14.9592
660 1 1 0 1 0.697417 9.32057 18.0857
661 1 1 0 1 -0.316623 9.93868 0.68427
662 1 1 0 1 1.60453 11.7347 -3.46875
663 1 1 0 1 -3.36746 6.52385 2.67056
664 1 1 0 1 -2.94494 10.4391 4.34999
665 1 1 0 1 -8.24924 3.52431 4.78147
666 1 1 0 1 4.38703 11.1295 14.7028
667 1 1 0 1 -4.77959 7.02774 -0.0879774
668 1 1 0 1 -6.57118 5.49215 2.4574
669 1 1 0 1 0.771931 6.54048 4.64047
670 1 1 0 1 -2.34649 4.1052 7.3249
671 1 1 0 1 1.11565 4.57929 3.20911
672 1 1 0 1 0.51394 17.7726 14.9999
673 1 1 0 1 -4.55098 15.1117 14.8855
674 1 1 0 1 -0.998274 15.4879 17.4428
675 1 1 0 1 -2.14344 12.7146 18.304
676 1 1 0 1 -7.44788 5.19125 16.3175
677 1 1 0 1 -3.35685 10.4435 20.3855
678 1 1 0 1 4.92133 4.50016 19.3048
679 1 1 0 1 -10.0618 5.17049 15.9118
680 1 1 0 1 -2.74482 8.73441 13.8574
681 1 1 0 1 -0.455314 9.65057 20.0074
682 1 1 0 1 2.07367 12.152 25.1533
683 1 1 0 1 -3.01551 11.6852 3.61379
684 1 1 0 1 1.22995 4.20475 -0.568707
685 1 1 0 1 -2.10139 15.7812 12.1248
686 1 1 0 1 2.95396 5.26777 6.78536
687 1 1 0 1 0.171712 18.0861 4.43688
688 1 1 0 1 -4.49043 12.3857 6.32301
689 1 1 0 1 -3.01397 2.8532 4.79442
690 1 1 0 1 0.742417 7.77652 14.0186
691 1 1 0 1 0.695277 3.1897 5.86297
692 1 1 0 1 -0.876196 8.07678 10.8273
693 1 1 0 1 0.40987 7.86373 19.4224
694 1 1 0 1 -5.97588 14.6976 15.6394
695 1 1 0 1 -4.48636 10.3214 17.2282
696 1 1 0 1 -0.867571 6.16327 19.4757
697 1 1 0 1 -0.384872 11.325 14.3214
698 1 1 0 1 -9.90234 9.57066 20.3955
699 1 1 0 1 1.11272 6.1016 20.7757
700 1 1 0 1 2.78695 12.5664 12.1267
701 1 1 0 1 -0.401284 13.8275 18.0297
702 1 1 0 1 -3.65257 5.68015 17.9781
703 1 1 0 1 -0.928308 12.6841 18.4938
704 1 1 0 1 1.35143 18.6826 18.0252
705 1 1 0 1 -1.51192 11.444 3.5352
706 1 1 0 1 -0.528303 8.10797 -0.74805
707 1 1 0 1 -0.985831 24.251 1.73013
708 1 1 0 1 3.0332 7.87399 0.310031
709 1 1 0 1 -6.50616 10.9361 2.71362
710 1 1 0 1 0.0798847 14.3102 5.97351
711 1 1 0 1 -6.40219 6.88932 7.67801
712 1 1 0 1 -6.70811 12.9925 13.308
713 1 1 0 1 -4.73964 12.355 8.99253
714 1 1 0 1 2.62911 11.8189 5.19716
715 1 1 0 1 -1.32838 10.9317 14.7133
716 1 1 0 1 -5.66971 12.226 16.946
717 1 1 0 1 -8.5363 14.5734 14.7791
718 1 1 0 1 -1.28829 12.0936 14.7119
719 1 1 0 1 -4.03479 9.08419 18.6109
720 1 1 0 1 -2.34235 13.2316 19.7496
721 1 1 0 1 -6.84651 11.1482 13.7543
722 1 1 0 1 4.00128 15.3163 27.8034
723 1 1 0 1 -0.452639 11.8336 17.715
724 1 1 0 1 -0.648103 13.2299 23.721
725 1 1 0 1 1.2249 13.9142 25.6894
726 1 1 0 1 -4.3585 17.649 25.2035
727 1 1 0 1 0.315191 13.4614 1.13613
728 1 1 0 1 -2.23407 10.274 -0.468025
729 1 1 0 1 -7.46879 4.63971 -2.75375
730 1 1 0 1 -1.31667 16.7908 4.59559
731 1 1 0 1 0.71118 11.6786 6.4031
732 1 1 0 1 6.316 11.5901 3.48388
733 1 1 0 1 -3.69506 9.04464 3.10797
734 1 1 0 1 2.16044 6.66602 7.17903
735 1 1 0 1 -3.88637 16.3227 5.62811
736 1 1 0 1 -6.94327 16.2506 1.09215
737 1 1 0 1 0.460621 9.60536 13.7753
738 1 1 0 1 9.8277 14.8965 7.15618
739 1 1 0 1 -4.96906 9.31644 18.0048
740 1 1 0 1 -3.6145 12.5565 22.7361
741 1 1 0 1 -2.94115 7.94626 18.5162
742 1 1 0 1 2.6256 8.19487 20.8759
743 1 1 0 1 -1.69335 11.6552 22.5172
744 1 1 0 1 4.15563 13.8963 28.6308
745 1 1 0 1 -1.16178 10.8131 22.243
746 1 1 0 1 -0.100129 10.7414 19.4024
747 1 1 0 1 -0.738073 13.3644 25.3825
748 1 1 0 1 1.48422 16.1152 26.4392
749 1 1 0 1 -0.0928815 13.2636 5.05456
750 1 1 0 1 1.50755 10.8369 5.41175
751 1 1 0 1 -11.4568 12.1155 5.74502
752 1 1 0 1 -0.274059 17.5006 5.21073
753 1 1 0 1 -1.8403 9.54642 7.69645
754 1 1 0 1 0.341688 12.2673 2.91924
755 1 1 0 1 1.58487 18.8508 1.67539
756 1 1 0 1 -9.04287 21.9864 0.935128
757 1 1 0 1 -6.5873 13.6322 16.6018
758 1 1 0 1 -4.57818 18.3294 13.8008
759 1 1 0 1 -6.62625 8.44938 7.71782
760 1 1 0 1 -1.55059 8.18085 16.5707
761 1 1 0 1 -2.86933 16.4644 13.9975
762 1 1 0 1 -4.73092 13.3709 13.337
763 1 1 0 1 -0.906521 13.6287 12.6441
764 1 1 0 1 -3.47949 18.4201 13.1427
765 1 1 0 1 -0.12695 13.2348 19.931
766 1 1 0 1 -3.20754 14.7009 16.9902
767 1 1 0 1 -3.08547 14.3767 19.4438
768 1 1 0 1 -3.67886 11.8138 23.7626
769 1 1 0 1 5.31702 8.01085 23.5243
770 1 1 0 1 -3.27813 14.5723 24.2155
771 1 1 0 1 -3.0378 13.1031 5.23595
772 1 1 0 1 -1.3896 13.5316 13.647
773 1 1 0 1 -3.88908 12.462 3.82124
774 1 1 0 1 -1.48129 12.0262 12.1687
775 1 1 0 1 -7.4779 13.0059 -1.56994
776 1 1 0 1 -0.484711 7.48432 5.90262
777 1 1 0 1 -4.57623 17.2206 8.16818
778 1 1 0 1 -2.959 10.6715 9.6359
779 1 1 0 1 -1.12651 17.1925 15.3665
780 1 1 0 1 -5.62265 15.3801 10.9159
781 1 1 0 1 1.78762 14.696 19.1576
782 1 1 0 1 -3.49608 16.0951 16.2217
783 1 1 0 1 -0.681676 17.4536 13.722
784 1 1 0 1 -2.71757 17.6926 22.294
785 1 1 0 1 -3.32687 21.6176 16.4992
786 1 1 0 1 -2.96585 11.6357 20.5187
787 1 1 0 1 4.36992 14.5683 22.4088
788 1 1 0 1 -9.99741 17.9666 13.2355
789 1 1 0 1 -2.407 18.5516 19.7693
790 1 1 0 1 -2.17855 11.9474 24.7091
791 1 1 0 1 0.234351 12.1856 19.2245
792 1 1 0 1 -0.565349 9.55413 23.8004
793 1 1 0 1 -9.47849 13.5677 4.37331
794 1 1 0 1 2.32592 15.7212 3.68958
795 1 1 0 1 -0.112423 19.8141 -1.21543
796 1 1 0 1 -2.02001 16.64 8.73777
797 1 1 0 1 -3.63977 21.5058 2.33259
798 1 1 0 1 -2.2229 17.1919 1.88773
799 1 1 0 1 -2.95034 13.9231 9.37706
800 1 1 0 1 4.57359 6.70861 3.06903
801 1 1 0 1 6.92698 15.7606 12.0235
802 1 1 0 1 -7.11815 20.595 11.5129
803 1 1 0 1 -1.92516 17.1449 17.5321
804 1 1 0 1 -1.60609 13.0706 15.3953
805 1 1 0 1 -7.26427 17.0141 15.9891
806 1 1 0 1 -0.737829 7.85221 8.32228
807 1 1 0 1 -2.91733 16.5634 15.1451
808 1 1 0 1 0.0514582 20.8136 11.4891
809 1 1 0 1 -4.08719 16.5326 15.0939