ITEM: TIMESTEP
26000
ITEM: NUMBER OF ATOMS
6752
ITEM: BOX BOUNDS pp pp pp
0.0000000000000000e+00 2.2000000000000000e+01
0.0000000000000000e+00 2.2000000000000000e+01
0.0000000000000000e+00 2.2000000000000000e+01
ITEM: ATOMS id mol type q mass xu yu zu
1 1 1 0 1 -3.88466 -9.67074 5.01504
2 1 1 0 1 -2.55922 7.16142 -3.4538
3 1 1 0 1 -3.24589 0.394085 2.20716
4 1 1 0 1 -9.10622 1.90629 3.96027
5 1 1 0 1 2.65332 9.04832 1.14352
6 1 1 0 1 -14.3248 -5.04424 6.12839
7 1 1 0 1 6.25593 8.40838 9.16047
8 1 1 0 1 3.57825 -3.57424 12.389
9 1 1 0 1 -0.503643 -0.144299 10.5993
10 1 1 0 1 -8.49767 -2.84157 11.8014
11 1 1 0 1 2.15945 -3.33972 2.15526
12 1 1 0 1 -7.00778 -5.14235 15.086
13 1 1 0 1 7.44105 3.14006 12.0253
14 1 1 0 1 -2.39251 12.956 11.5934
15 1 1 0 1 -8.30753 0.705385 9.83032
16 1 1 0 1 -4.2417 -7.45616 13.1607
17 1 1 0 1 -0.223508 -2.72921 19.2326
18 1 1 0 1 -8.70602 -8.83235 20.9586
19 1 1 0 1 -3.98324 4.38451 14.2783
20 1 1 0 1 -8.69528 2.60816 20.0341
21 1 1 0 1 -8.19324 4.98694 15.6862
22 1 1 0 1 -0.504371 9.946 19.5108
23 1 1 0 1 -12.1207 -0.554723 7.55325
24 1 1 0 1 -8.60161 6.99996 0.866347
25 1 1 0 1 -1.52385 2.39528 -5.84249
26 1 1 0 1 2.39326 -4.13866 5.28729
27 1 1 0 1 -6.20696 -1.48516 12.1021
28 1 1 0 1 -0.701621 3.34699 -0.579754
29 1 1 0 1 -5.22378 -3.6927 15.2571
30 1 1 0 1 -4.15422 2.77152 17.8544
31 1 1 0 1 -5.19247 10.7179 10.4297
32 1 1 0 1 -3.29488 -4.48526 4.86055
33 1 1 0 1 -7.63591 -1.33698 10.1285
34 1 1 0 1 -4.21309 3.19544 16.2263
35 1 1 0 1 -0.366231 6.2003 14.2553
36 1 1 0 1 4.54611 1.81067 6.69473
37 1 1 0 1 -2.3583 3.83972 15.602
38 1 1 0 1 3.40137 1.24187 24.7604
39 1 1 0 1 -3.06099 8.91834 8.67788
40 1 1 0 1 -3.26235 3.94463 16.2269
41 1 1 0 1 -5.64823 -2.89878 16.5103
42 1 1 0 1 -3.31082 2.49931 27.8138
43 1 1 0 1 -2.02618 8.88783 15.1454
44 1 1 0 1 -4.446 9.98586 16.3083
45 1 1 0 1 -10.9275 5.04379 3.0394
46 1 1 0 1 -2.3174 2.65014 9.78702
47 1 1 0 1 -5.33052 -0.733051 1.41425
48 1 1 0 1 -6.36719 13.6657 0.295307
49 1 1 0 1 -6.74441 5.05622 0.818549
50 1 1 0 1 -4.14214 3.47697 -0.245933
51 1 1 0 1 -0.240235 1.383 2.44411
52 1 1 0 1 0.219404 2.66093 13.5769
53 1 1 0 1 -3.51352 -0.991262 2.64126
54 1 1 0 1 -5.9944 -0.950197 18.7258
55 1 1 0 1 -2.89992 1.57239 9.88722
56 1 1 0 1 -2.14125 1.43656 6.54028
57 1 1 0 1 -4.6732 10.8962 18.6395
58 1 1 0 1 -5.12362 10.5291 13.2499
59 1 1 0 1 -5.72748 4.81013 11.1953
60 1 1 0 1 -0.198567 2.19919 22.7536
61 1 1 0 1 -4.52276 8.88748 13.4547
62 1 1 0 1 2.28956 4.07956 24.0271
63 1 1 0 1 1.1097 7.371 3.91286
64 1 1 0 1 -1.42571 -0.696283 12.4422
65 1 1 0 1 -11.3999 -0.985373 17.6264
66 1 1 0 1 -4.38512 6.38527 24.25
67 1 1 0 1 -4.63741 -5.6391 -4.96257
68 1 1 0 1 -6.01687 3.51868 -10.3418
69 1 1 0 1 -2.72387 6.11754 0.798922
70 1 1 0 1 -0.222345 12.3042 3.18665
71 1 1 0 1 1.11741 0.559051 4.82633
72 1 1 0 1 -15.5825 5.29703 0.266823
73 1 1 0 1 0.485916 1.78154 4.45845
74 1 1 0 1 -3.48103 1.06013 16.8694
75 1 1 0 1 -1.49924 0.757642 5.86028
76 1 1 0 1 -0.175163 -2.4514 9.09744
77 1 1 0 1 -8.24016 -3.94491 8.48522
78 1 1 0 1 -1.7921 6.59684 11.5628
79 1 1 0 1 -1.00209 2.38975 13.4914
80 1 1 0 1 0.128611 -4.47123 10.9973
81 1 1 0 1 -2.95843 10.0275 20.0337
82 1 1 0 1 -3.25191 -4.07435 12.8788
83 1 1 0 1 -7.21397 0.441508 18.1263
84 1 1 0 1 2.82987 6.04078 16.6571
85 1 1 0 1 -3.52073 -2.1684 24.9671
86 1 1 0 1 -3.82888 -3.77713 18.6498
87 1 1 0 1 0.565971 7.1085 22.8938
88 1 1 0 1 -3.69534 7.09386 19.8282
89 1 1 0 1 -4.50404 10.525 -0.0518733
90 1 1 0 1 -0.57139 11.9148 10.3737
91 1 1 0 1 -1.38072 -1.98405 8.45576
92 1 1 0 1 -0.0659328 8.20441 2.70142
93 1 1 0 1 0.571385 9.53773 2.91465
94 1 1 0 1 -3.43168 -3.98604 2.40304
95 1 1 0 1 -3.88811 5.13398 10.0519
96 1 1 0 1 2.38441 4.43124 3.12662
97 1 1 0 1 -4.70609 11.8336 10.375
98 1 1 0 1 3.52977 5.71607 6.73661
99 1 1 0 1 -3.81189 6.97963 4.26475
100 1 1 0 1 1.06164 2.13782 1.29546
101 1 1 0 1 -3.14846 3.49004 7.04993
102 1 1 0 1 -3.97504 3.11861 9.41497
103 1 1 0 1 -5.36587 6.82853 12.0171
104 1 1 0 1 -2.1189 15.1924 12.7734
105 1 1 0 1 -0.982342 4.1554 3.53943
106 1 1 0 1 -0.103308 5.34535 20.5483
107 1 1 0 1 -5.4571 8.51785 15.6871
108 1 1 0 1 0.400317 5.94073 13.366
109 1 1 0 1 -8.48392 2.53848 24.7797
110 1 1 0 1 -8.60353 5.77264 23.8356
111 1 1 0 1 -6.72747 3.07806 2.84434
112 1 1 0 1 -3.24032 8.64587 -5.06929
113 1 1 0 1 -2.63511 5.71571 16.8549
114 1 1 0 1 0.84544 8.44366 5.93835
115 1 1 0 1 -7.21772 10.2945 0.384901
116 1 1 0 1 -0.118598 13.0414 10.0509
117 1 1 0 1 -4.57539 9.40566 2.67503
118 1 1 0 1 -3.81888 2.43045 3.59036
119 1 1 0 1 -4.6918 6.58999 11.3347
120 1 1 0 1 -1.56689 2.61536 8.07221
121 1 1 0 1 -0.503035 0.589916 3.82421
122 1 1 0 1 2.19374 5.19226 6.18429
123 1 1 0 1 -2.44045 5.20533 12.9891
124 1 1 0 1 -6.77606 11.3521 13.5332
125 1 1 0 1 -8.68842 9.3376 6.58298
126 1 1 0 1 -6.06607 6.76426 22.6803
127 1 1 0 1 -0.751448 10.0599 15.9402
128 1 1 0 1 -10.567 7.20582 11.3329
129 1 1 0 1 -2.09846 6.10596 26.0162
130 1 1 0 1 -3.24936 7.21478 13.3345
131 1 1 0 1 -12.6557 1.98929 6.68815
132 1 1 0 1 -5.2902 4.9673 29.0153
133 1 1 0 1 1.61384 6.10148 3.13818
134 1 1 0 1 -7.04044 5.29196 11.315
135 1 1 0 1 -5.30064 -0.471492 3.18192
136 1 1 0 1 -0.641161 14.0402 0.864886
137 1 1 0 1 -8.51378 5.18285 8.61104
138 1 1 0 1 -8.32153 10.5672 16.7228
139 1 1 0 1 3.51864 5.60366 2.7827
140 1 1 0 1 -9.82605 10.0606 1.18548
141 1 1 0 1 2.38587 7.00249 0.968667
142 1 1 0 1 -5.05963 3.59452 8.72213
143 1 1 0 1 -1.34606 2.38269 10.5401
144 1 1 0 1 -0.0963564 2.1622 9.31406
145 1 1 0 1 -10.0136 6.4629 19.8861
146 1 1 0 1 -8.2386 10.5666 21.8441
147 1 1 0 1 -0.648156 22.1703 16.4649
148 1 1 0 1 -6.75991 12.873 12.2144
149 1 1 0 1 -11.9795 3.17357 19.2466
150 1 1 0 1 -7.72628 8.40414 3.53694
151 1 1 0 1 -5.08699 2.62654 21.3369
152 1 1 0 1 -4.12472 -0.343687 18.0367
153 1 1 0 1 -4.66773 11.1564 21.2117
154 1 1 0 1 -5.10287 4.74629 25.1505
155 1 1 0 1 -3.45219 6.59718 -5.74733
156 1 1 0 1 0.851573 6.7704 -1.46044
157 1 1 0 1 -5.00477 11.4432 4.50709
158 1 1 0 1 -3.25626 13.7654 2.93405
159 1 1 0 1 -3.51066 6.0627 0.200982
160 1 1 0 1 -4.82844 4.27446 5.38705
161 1 1 0 1 -3.08862 11.8736 6.35726
162 1 1 0 1 -4.54491 7.63941 11.517
163 1 1 0 1 -0.136081 8.40303 4.79571
164 1 1 0 1 -8.22753 6.29831 10.9498
165 1 1 0 1 -0.379439 -0.129932 15.3632
166 1 1 0 1 -3.32447 13.3418 21.5711
167 1 1 0 1 -7.28579 15.8472 15.1121
168 1 1 0 1 -9.05658 4.83643 22.1415
169 1 1 0 1 -9.59732 15.5651 14.3109
170 1 1 0 1 2.75623 9.72562 21.9859
171 1 1 0 1 -4.07325 12.6058 25.4377
172 1 1 0 1 -0.882096 8.93747 18.5711
173 1 1 0 1 -2.28134 3.81415 17.4797
174 1 1 0 1 6.19518 6.60777 20.2908
175 1 1 0 1 -4.39199 7.54192 18.2209
176 1 1 0 1 1.06979 5.28352 25.6515
177 1 1 0 1 -6.22715 4.10027 0.666587
178 1 1 0 1 -0.299715 17.2256 10.1521
179 1 1 0 1 -8.22998 14.3816 2.30282
180 1 1 0 1 -3.42887 17.6428 -0.376188
181 1 1 0 1 -5.90207 15.3182 1.489
182 1 1 0 1 -8.66951 15.3512 6.25318
183 1 1 0 1 -5.37104 13.8165 4.09102
184 1 1 0 1 -4.53635 10.0816 7.80296
185 1 1 0 1 -7.6994 1.2999 8.885
186 1 1 0 1 -14.1174 15.5861 9.60855
187 1 1 0 1 -7.11345 16.1693 12.0773
188 1 1 0 1 0.538221 -0.294392 10.294
189 1 1 0 1 -4.03027 13.7897 18.7851
190 1 1 0 1 -6.50674 6.28518 14.43
191 1 1 0 1 -4.40532 9.98836 23.445
192 1 1 0 1 -2.83316 8.26783 13.1641
193 1 1 0 1 -4.048 4.92608 19.6741
194 1 1 0 1 7.17645 11.1096 18.4817
195 1 1 0 1 -5.34616 6.61695 13.1872
196 1 1 0 1 1.63681 7.32993 20.8105
197 1 1 0 1 -3.42271 3.6268 17.7962
198 1 1 0 1 7.34566 7.59596 25.1965
199 1 1 0 1 -1.96354 12.0737 2.69736
200 1 1 0 1 5.08338 8.81957 8.7304
201 1 1 0 1 -4.35892 18.4165 -1.8799
202 1 1 0 1 -1.28628 2.73603 4.39252
203 1 1 0 1 -8.47873 9.51293 5.45425
204 1 1 0 1 -1.05113 3.69951 13.3795
205 1 1 0 1 3.76936 6.78737 2.43393
206 1 1 0 1 -0.448703 7.83887 6.04817
207 1 1 0 1 -2.62514 8.57707 1.1177
208 1 1 0 1 -0.767729 3.96691 9.87955
209 1 1 0 1 -1.88265 2.26937 2.18691
210 1 1 0 1 -6.13569 6.89784 6.36341
211 1 1 0 1 -2.11392 7.64874 6.90218
212 1 1 0 1 -12.3146 9.7013 15.105
213 1 1 0 1 -4.8581 11.3773 25.3815
214 1 1 0 1 -14.9022 23.7292 18.1014
215 1 1 0 1 -7.11021 13.6263 14.2194
216 1 1 0 1 -8.21022 12.1928 18.5203
217 1 1 0 1 -11.9261 15.6337 29.131
218 1 1 0 1 3.26842 7.49901 23.4493
219 1 1 0 1 4.96163 9.35964 25.9672
220 1 1 0 1 5.34743 16.6325 22.4584
221 1 1 0 1 12.0608 7.73061 -2.10162
222 1 1 0 1 -6.04957 15.9129 -0.601965
223 1 1 0 1 -8.61491 10.0101 1.09232
224 1 1 0 1 -5.15554 9.1719 -5.39031
225 1 1 0 1 -8.95289 18.3347 3.08671
226 1 1 0 1 -12.0914 12.5748 9.38761
227 1 1 0 1 -10.7772 14.3693 8.69237
228 1 1 0 1 -9.84555 16.7342 0.572278
229 1 1 0 1 4.42653 10.6178 11.7291
230 1 1 0 1 -2.17233 15.2135 10.5037
231 1 1 0 1 -4.97815 9.6948 14.3112
232 1 1 0 1 0.136682 1.14537 11.3693
233 1 1 0 1 -1.09667 11.8629 15.3148
234 1 1 0 1 -11.0115 13.229 14.0151
235 1 1 0 1 -5.26868 12.1802 16.6761
236 1 1 0 1 -6.65312 8.10493 13.2154
237 1 1 0 1 -9.94243 13.9571 17.3771
238 1 1 0 1 -5.65132 10.9328 14.6882
239 1 1 0 1 -2.80425 10.8055 16.1741
240 1 1 0 1 -5.01806 13.7691 10.1754
241 1 1 0 1 -3.74496 6.61085 18.2697
242 1 1 0 1 -1.77617 1.71974 21.3445
243 1 1 0 1 -5.16518 11.437 -2.55717
244 1 1 0 1 -2.75331 9.79588 -3.24044
245 1 1 0 1 -4.65559 16.536 1.60735
246 1 1 0 1 -0.368799 10.7506 1.41951
247 1 1 0 1 -6.65414 12.5629 9.29722
248 1 1 0 1 -1.05085 -3.81823 6.74856
249 1 1 0 1 -8.46274 11.1582 6.56384
250 1 1 0 1 -0.485915 6.09311 2.99094
251 1 1 0 1 -8.00115 7.48187 5.12733
252 1 1 0 1 -0.946207 4.2688 5.57025
253 1 1 0 1 1.82093 -1.08178 18.6776
254 1 1 0 1 -0.537282 11.5714 19.1396
255 1 1 0 1 -9.2234 1.80696 10.0542
256 1 1 0 1 -10.3362 17.7207 11.276
257 1 1 0 1 4.06049 16.744 18.7021
258 1 1 0 1 2.21203 11.4989 17.3256
259 1 1 0 1 -5.97314 11.7704 20.0233
260 1 1 0 1 -2.23807 15.9675 18.263
261 1 1 0 1 -1.03979 7.12331 17.0183
262 1 1 0 1 -4.33323 9.87758 18.679
263 1 1 0 1 3.3627 15.8617 21.0634
264 1 1 0 1 -1.91007 15.4258 23.1
265 1 1 0 1 -4.53143 12.6638 0.291448
266 1 1 0 1 6.45289 22.2713 4.35039
267 1 1 0 1 1.72116 15.5741 9.05821
268 1 1 0 1 -3.07782 5.52026 -1.68645
269 1 1 0 1 -0.957199 9.53827 9.93901
270 1 1 0 1 -2.38414 15.8976 -0.95805
271 1 1 0 1 -5.55376 6.78585 8.38034
272 1 1 0 1 -6.43938 9.08387 15.8535
273 1 1 0 1 -1.00169 12.4853 6.7798
274 1 1 0 1 -13.0683 7.13441 8.07454
275 1 1 0 1 -7.24671 0.77294 12.1641
276 1 1 0 1 1.57469 15.3976 10.4634
277 1 1 0 1 -5.74457 8.37948 12.6215
278 1 1 0 1 0.49225 14.2025 18.8707
279 1 1 0 1 -3.7723 18.7116 12.1405
280 1 1 0 1 -6.07619 14.4153 10.1789
281 1 1 0 1 -0.783924 11.3402 27.8689
282 1 1 0 1 -2.84741 14.0773 10.7808
283 1 1 0 1 -3.07088 12.4158 17.0133
284 1 1 0 1 -7.23463 15.4031 13.9338
285 1 1 0 1 -7.48868 2.72783 17.7591
286 1 1 0 1 -2.87416 9.07062 21.2819
287 1 1 0 1 -8.77427 24.0147 5.97135
288 1 1 0 1 -3.84327 14.914 -0.255323
289 1 1 0 1 -9.61137 3.28703 5.61074
290 1 1 0 1 -3.72981 9.38905 7.29849
291 1 1 0 1 -6.31214 0.722463 10.5108
292 1 1 0 1 -7.02017 11.7988 11.4036
293 1 1 0 1 -0.149056 8.63303 7.54131
294 1 1 0 1 -1.68851 13.5665 7.32218
295 1 1 0 1 -3.79686 6.87116 8.33941
296 1 1 0 1 -2.50676 13.5693 15.2563
297 1 1 0 1 -9.34784 11.58 5.74274
298 1 1 0 1 -8.17487 4.02648 18.229
299 1 1 0 1 4.4699 17.4569 13.2202
300 1 1 0 1 2.987 20.4879 20.2528
301 1 1 0 1 -1.07537 18.1408 18.5181
302 1 1 0 1 -3.09959 14.6348 14.908
303 1 1 0 1 -13.3248 17.4232 8.17758
304 1 1 0 1 0.623433 7.21514 11.427
305 1 1 0 1 6.94203 11.0945 21.7135
306 1 1 0 1 -2.9854 14.2505 21.0054
307 1 1 0 1 1.46417 15.8562 22.2093
308 1 1 0 1 3.87048 29.4119 26.1767
309 1 1 0 1 -0.264137 14.1877 5.49699
310 1 1 0 1 2.94439 13.1504 8.08802
311 1 1 0 1 -12.18 13.2428 -3.46596
312 1 1 0 1 -8.1883 6.34271 5.19448
313 1 1 0 1 -10.5904 14.1922 1.70341
314 1 1 0 1 -1.48884 10.8985 0.354114
315 1 1 0 1 2.46245 10.4613 6.07316
316 1 1 0 1 -9.6511 20.7949 6.80305
317 1 1 0 1 -4.37499 13.7704 9.37037
318 1 1 0 1 -3.82206 19.1837 11.2436
319 1 1 0 1 -4.19545 8.88635 8.26597
320 1 1 0 1 4.49522 18.5845 7.04642
321 1 1 0 1 -4.40662 13.6751 14.9002
322 1 1 0 1 -1.90501 12.1549 20.571
323 1 1 0 1 -3.53272 12.7227 7.14696
324 1 1 0 1 -0.560977 11.2031 4.69871
325 1 1 0 1 -0.144081 10.6107 9.66947
326 1 1 0 1 -2.44325 15.9726 16.2972
327 1 1 0 1 -9.81672 13.1505 18.1538
328 1 1 0 1 -0.208443 17.2675 22.8119
329 1 1 0 1 0.0162742 13.6596 22.1708
330 1 1 0 1 6.31257 16.9093 23.8093
331 1 1 0 1 -5.87218 12.9857 9.77608
332 1 1 0 1 -1.3085 19.4997 4.753
333 1 1 0 1 1.83286 7.25959 6.04598
334 1 1 0 1 -4.41592 15.1535 2.54729
335 1 1 0 1 1.4227 12.119 11.2303
336 1 1 0 1 -7.30882 14.5918 1.83489
337 1 1 0 1 -4.69672 12.436 2.33216
338 1 1 0 1 -5.04016 10.8119 5.62339
339 1 1 0 1 -10.993 12.1604 6.48432
340 1 1 0 1 -4.74773 8.43463 10.7134
341 1 1 0 1 -2.72827 8.65441 5.32239
342 1 1 0 1 -2.17981 15.9831 7.71401
343 1 1 0 1 1.44335 7.23071 7.10052
344 1 1 0 1 -8.68706 7.71249 11.0709
345 1 1 0 1 -5.83036 18.337 13.5591
346 1 1 0 1 -2.03469 15.4913 20.0704
347 1 1 0 1 -0.372725 19.2455 17.7219
348 1 1 0 1 -4.27633 12.1429 17.15
349 1 1 0 1 -0.510456 20.3261 15.5778
350 1 1 0 1 -3.72619 15.3296 16.4673
351 1 1 0 1 -8.33359 20.3995 21.7079
352 1 1 0 1 -0.699167 16.0574 29.9915
353 1 1 0 1 -9.7606 18.0239 -2.95732
354 1 1 0 1 1.25386 16.8794 3.29419
355 1 1 0 1 -5.68305 10.3481 4.73551
356 1 1 0 1 -8.27272 11.636 4.25249
357 1 1 0 1 -0.239289 16.4153 -0.426544
358 1 1 0 1 -3.63241 15.8735 5.35044
359 1 1 0 1 -11.5459 12.2731 15.2546
360 1 1 0 1 1.18691 11.2841 4.21156
361 1 1 0 1 -0.414035 16.0023 9.37786
362 1 1 0 1 -0.504005 13.3309 11.0172
363 1 1 0 1 0.790906 12.143 10.1763
364 1 1 0 1 3.91129 9.284 8.61875
365 1 1 0 1 -2.63344 3.85768 6.14142
366 1 1 0 1 -3.28008 13.5777 11.5467
367 1 1 0 1 -0.377061 10.0071 14.2854
368 1 1 0 1 -2.6622 19.7587 15.839
369 1 1 0 1 -2.59994 14.612 12.0212
370 1 1 0 1 -3.96688 5.58212 7.8398
371 1 1 0 1 -10.2454 17.6039 24.5811
372 1 1 0 1 -4.53729 18.2815 22.724
373 1 1 0 1 -4.81731 13.1829 16.2275
374 1 1 0 1 -2.51938 12.6865 28.986
375 1 1 0 1 -7.16821 3.15075 9.0294
376 1 1 0 1 -5.43979 18.2626 -0.819223
377 1 1 0 1 -11.1183 8.82143 1.67084
378 1 1 0 1 -8.87424 15.7898 7.7079
379 1 1 0 1 1.26688 15.1235 -5.18892
380 1 1 0 1 -2.99684 14.2075 4.32964
381 1 1 0 1 -7.87096 14.0302 9.44784
382 1 1 0 1 -15.7401 16.4356 15.1866
383 1 1 0 1 -4.14616 20.1647 11.331
384 1 1 0 1 1.45885 9.93927 12.7956
385 1 1 0 1 -6.79558 15.7308 7.32988
386 1 1 0 1 -4.10467 12.9005 11.6906
387 1 1 0 1 -4.61279 14.276 17.8109
388 1 1 0 1 -5.66399 16.3767 15.3495
389 1 1 0 1 -3.68531 20.2257 19.3325
390 1 1 0 1 -1.33551 14.6047 20.0705
391 1 1 0 1 -4.54416 22.4171 19.4538
392 1 1 0 1 -7.34734 19.2943 6.18551
393 1 1 0 1 -4.32831 10.4882 12.3315
394 1 1 0 1 -4.0302 17.6512 23.3586
395 1 1 0 1 -13.2397 14.1605 12.5942
396 1 1 0 1 -0.73674 8.16996 22.9756
397 1 1 0 1 -3.81099 19.3008 -0.339441
398 1 1 0 1 -3.3125 27.1029 0.789958
399 1 1 0 1 -2.4318 14.2492 2.45697
400 1 1 0 1 -6.95134 13.1414 5.19924
401 1 1 0 1 -2.42642 11.0017 14.2882
402 1 1 0 1 -5.48754 12.0699 12.552
403 1 1 0 1 2.63908 14.3593 12.3392
404 1 1 0 1 -3.07841 28.3958 3.92691
405 1 1 0 1 -11.3916 13.7211 9.41954
406 1 1 0 1 -6.17183 19.9931 6.48175
407 1 1 0 1 -4.59342 17.4434 6.12827
408 1 1 0 1 -9.24711 20.1898 11.8881
409 1 1 0 1 -7.10583 11.3167 12.4964
410 1 1 0 1 -6.38834 4.83308 8.59339
411 1 1 0 1 5.2672 17.364 8.02441
412 1 1 0 1 -11.6123 13.3968 4.69896
413 1 1 0 1 -11.4521 15.3805 19.2653
414 1 1 0 1 -5.97888 10.067 20.4824
415 1 1 0 1 0.21772 15.6766 27.3203
416 1 1 0 1 -4.51579 17.0239 29.7605
417 1 1 0 1 2.01997 21.7797 23.4576
418 1 1 0 1 0.721217 16.6943 27.5388
419 1 1 0 1 -7.08677 17.2425 3.33279
420 1 1 0 1 -3.46567 24.443 18.8152
421 1 1 0 1 -4.28255 18.3499 6.45533
422 1 1 0 1 -3.49169 5.29379 4.51566
423 1 1 0 1 -1.79229 30.4051 8.15285
424 1 1 0 1 -0.324411 15.5567 13.1518
425 1 1 0 1 -1.7926 13.047 3.72266
426 1 1 0 1 -5.46864 20.3129 -5.77906
427 1 1 0 1 -4.03451 20.8007 6.55446
428 1 1 0 1 3.05649 14.9986 1.49181
429 1 1 0 1 -6.79812 24.4449 6.13923
430 1 1 0 1 -0.0326053 14.4774 7.79366
431 1 1 0 1 -9.89075 13.3192 12.6408
432 1 1 0 1 -0.696164 26.6474 7.41674
433 1 1 0 1 -3.96924 19.7278 15.6675
434 1 1 0 1 -4.40078 5.65406 11.7399
435 1 1 0 1 -5.67983 12.9813 21.5706
436 1 1 0 1 -8.9878 12.6569 13.1363
437 1 1 0 1 -2.99112 21.5838 15.9698
438 1 1 0 1 -6.35687 15.5903 17.7622
439 1 1 0 1 -2.64265 21.7651 20.5548
440 1 1 0 1 -3.56155 12.8085 23.9532
441 1 1 0 1 -4.95507 18.1093 -3.50044
442 1 1 0 1 -6.54644 20.6682 4.10062
443 1 1 0 1 -3.08352 15.3523 -2.68661
444 1 1 0 1 -1.06745 23.8043 3.5336
445 1 1 0 1 -7.47735 18.2401 2.97771
446 1 1 0 1 2.73043 6.58809 11.0455
447 1 1 0 1 -1.50579 12.1526 5.98921
448 1 1 0 1 -7.23348 18.317 10.1331
449 1 1 0 1 -1.58666 19.9307 10.8966
450 1 1 0 1 -6.75085 11.0658 20.6303
451 1 1 0 1 -9.98733 12.2377 12.6945
452 1 1 0 1 -6.76578 19.7914 20.3449
453 1 1 0 1 -4.34045 16.2222 15.9596
454 1 1 0 1 1.36479 21.7372 14.348
455 1 1 0 1 -2.69055 4.70522 2.66905
456 1 1 0 1 -5.32732 19.2284 13.5311
457 1 1 0 1 -4.09633 18.9971 17.8648
458 1 1 0 1 -10.4597 15.9903 15.3225
459 1 1 0 1 -9.81815 16.6112 14.7794
460 1 1 0 1 -2.26753 16.3866 19.4013
461 1 1 0 1 0.305003 19.0222 12.4568
462 1 1 0 1 6.53277 24.7665 19.9688
463 1 1 0 1 1.33606 19.1207 -1.9422
464 1 1 0 1 -3.60186 22.7435 9.32601
465 1 1 0 1 8.10679 24.2657 1.43022
466 1 1 0 1 -0.974043 28.4135 0.113376
467 1 1 0 1 -6.75052 19.8671 11.5224
468 1 1 0 1 -1.98132 23.4206 3.88392
469 1 1 0 1 0.721697 16.4739 15.4584
470 1 1 0 1 -1.20017 20.2564 9.75205
471 1 1 0 1 -2.84322 7.35394 4.73289
472 1 1 0 1 5.17199 30.2843 15.9968
473 1 1 0 1 -7.10573 18.9387 11.5355
474 1 1 0 1 1.54427 13.0026 13.0346
475 1 1 0 1 0.86301 19.0607 17.6281
476 1 1 0 1 3.8616 28.6934 21.319
477 1 1 0 1 2.48977 21.6055 14.8198
478 1 1 0 1 6.29438 25.3819 16.2874
479 1 1 0 1 -5.78059 31.645 8.34897
480 1 1 0 1 3.86728 20.716 17.6773
481 1 1 0 1 -1.16158 21.307 15.7953
482 1 1 0 1 -2.44977 31.7846 17.4163
483 1 1 0 1 3.78449 17.8522 27.5853
484 1 1 0 1 -3.43104 18.3723 22.51
485 1 1 0 1 -2.95121 -9.23194 2.84591
486 1 1 0 1 -2.46996 9.58644 -6.17298
487 1 1 0 1 -1.64636 1.57978 1.36886
488 1 1 0 1 -5.6668 -1.64084 3.54065
489 1 1 0 1 1.83813 0.506326 -4.15285
490 1 1 0 1 -8.30786 -1.43722 5.97858
491 1 1 0 1 -5.65823 3.85097 4.63379
492 1 1 0 1 -2.01522 -11.358 13.2917
493 1 1 0 1 1.90944 -1.25979 11.7274
494 1 1 0 1 -5.82436 2.71479 7.17335
495 1 1 0 1 -5.1422 0.643578 16.1686
496 1 1 0 1 1.36077 6.268 19.366
497 1 1 0 1 -0.503437 -5.54815 15.3326
498 1 1 0 1 0.295982 7.8918 10.5945
499 1 1 0 1 -0.757865 7.79831 7.51491
500 1 1 0 1 -4.91091 -4.71382 12.4178
501 1 1 0 1 1.57431 0.000813632 9.80665
502 1 1 0 1 0.586311 -10.4229 19.1091
503 1 1 0 1 -1.84818 6.63931 12.6219
504 1 1 0 1 -0.62609 -2.14784 11.4665
505 1 1 0 1 -3.70784 -3.19712 13.4463
506 1 1 0 1 -2.12501 6.81771 16.5976
507 1 1 0 1 0.58456 3.24709 -3.32358
508 1 1 0 1 -2.49437 4.53186 1.11836
509 1 1 0 1 -6.46624 4.86428 3.5261
510 1 1 0 1 -9.67943 -7.12547 -2.80578
511 1 1 0 1 5.52523 1.52093 7.1192
512 1 1 0 1 -4.51683 16.2639 6.04366
513 1 1 0 1 -4.37466 -1.52572 7.94214
514 1 1 0 1 -2.22405 -1.27187 2.1708
515 1 1 0 1 8.28758 8.88757 0.723614
516 1 1 0 1 -4.93239 7.78684 8.36675
517 1 1 0 1 -1.96799 -0.0295089 6.85835
518 1 1 0 1 1.58254 3.07057 5.43196
519 1 1 0 1 3.76101 0.941471 17.1804
520 1 1 0 1 -0.422952 -3.27013 7.58147
521 1 1 0 1 -2.93199 4.501 10.3541
522 1 1 0 1 -5.04752 7.4198 10.4513
523 1 1 0 1 0.432908 0.339756 16.7308
524 1 1 0 1 -1.60839 2.83479 14.1913
525 1 1 0 1 -1.32863 2.87761 25.3765
526 1 1 0 1 -0.0466431 -3.65167 26.2975
527 1 1 0 1 -3.33654 8.20885 20.5879
528 1 1 0 1 3.74283 4.02708 24.8349
529 1 1 0 1 7.58513 13.6156 8.97354
530 1 1 0 1 2.68908 -1.16717 -4.83795
531 1 1 0 1 6.90336 12.3378 -2.11184
532 1 1 0 1 -0.517739 -7.88146 3.62346
533 1 1 0 1 -2.60956 6.72006 -4.42114
534 1 1 0 1 -0.531262 -0.601363 3.7185
535 1 1 0 1 1.69576 5.44677 -0.57336
536 1 1 0 1 -4.69958 13.6304 0.891914
537 1 1 0 1 3.81453 2.33621 8.36076
538 1 1 0 1 -1.85539 -1.62939 13.6514
539 1 1 0 1 0.214432 6.08193 9.13602
540 1 1 0 1 1.62872 8.2023 8.92516
541 1 1 0 1 -7.19949 6.61715 10.3381
542 1 1 0 1 -3.57564 8.54417 9.9098
543 1 1 0 1 -3.8511 6.71797 3.22838
544 1 1 0 1 -1.4842 5.66868 6.67131
545 1 1 0 1 1.43937 7.54297 12.1795
546 1 1 0 1 -2.48771 -1.96142 12.2761
547 1 1 0 1 0.0861996 -1.55643 19.59
548 1 1 0 1 1.33533 6.27108 26.1613
549 1 1 0 1 0.578514 4.84876 26.7081
550 1 1 0 1 -3.46864 9.77915 21.789
551 1 1 0 1 -2.47642 5.97184 -6.14663
552 1 1 0 1 -6.34017 2.30757 -5.2277
553 1 1 0 1 -0.806774 6.84707 1.11645
554 1 1 0 1 3.04457 5.88661 -1.03398
555 1 1 0 1 -1.7801 5.02887 -8.19073
556 1 1 0 1 -1.78205 1.33563 2.7126
557 1 1 0 1 2.144 11.6895 0.528103
558 1 1 0 1 2.24366 3.40848 6.26495
559 1 1 0 1 -0.469387 -1.26925 12.2054
560 1 1 0 1 -4.62198 -3.22837 1.61047
561 1 1 0 1 -0.00618397 5.09835 14.0948
562 1 1 0 1 4.2654 5.84802 20.6852
563 1 1 0 1 -2.45652 0.675046 19.2312
564 1 1 0 1 -7.70421 -2.8903 8.02956
565 1 1 0 1 9.07726 7.55494 17.4488
566 1 1 0 1 4.55163 5.26342 11.728
567 1 1 0 1 -3.47592 6.20639 17.3561
568 1 1 0 1 6.57413 6.56305 14.2419
569 1 1 0 1 3.83498 3.73982 17.1631
570 1 1 0 1 -3.16574 7.45974 28.1398
571 1 1 0 1 4.9041 7.17921 19.7985
572 1 1 0 1 0.301165 2.17778 21.1755
573 1 1 0 1 -0.862204 4.02785 -5.00798
574 1 1 0 1 -3.91688 1.68942 5.4237
575 1 1 0 1 -7.31385 2.34702 -7.47084
576 1 1 0 1 -0.176716 7.00751 -1.22898
577 1 1 0 1 -6.39529 -0.0948857 5.33194
578 1 1 0 1 -2.57605 11.8591 10.9541
579 1 1 0 1 -7.03496 3.80303 1.86352
580 1 1 0 1 -2.69662 0.390908 10.4439
581 1 1 0 1 -3.84343 7.69453 10.5891
582 1 1 0 1 -2.09657 6.67417 7.65005
583 1 1 0 1 -8.58369 9.80916 12.3239
584 1 1 0 1 -3.3767 7.68934 16.2061
585 1 1 0 1 -6.87356 1.66029 11.8198
586 1 1 0 1 0.902207 12.4208 17.9377
587 1 1 0 1 -4.52387 16.0761 13.0038
588 1 1 0 1 -7.74439 2.17687 20.2712
589 1 1 0 1 -6.38891 2.98455 14.2907
590 1 1 0 1 -5.4769 5.70698 13.7845
591 1 1 0 1 -7.12822 1.87785 9.88441
592 1 1 0 1 -2.83938 0.446996 18.073
593 1 1 0 1 -1.24937 4.36587 15.3998
594 1 1 0 1 -7.95395 -2.56038 22.1735
595 1 1 0 1 0.0666244 -0.503193 -2.56096
596 1 1 0 1 -1.57089 9.84602 4.00995
597 1 1 0 1 -6.69539 1.71491 3.99874
598 1 1 0 1 1.13292 8.78773 -0.193052
599 1 1 0 1 -1.62758 9.74788 -0.0266829
600 1 1 0 1 0.573583 4.77249 7.1726
601 1 1 0 1 -6.73769 7.92725 4.1048
602 1 1 0 1 -3.96153 -5.08405 4.28241
603 1 1 0 1 2.20874 -6.2634 18.6645
604 1 1 0 1 11.5982 8.64765 16.6505
605 1 1 0 1 -5.27916 8.49957 4.62694
606 1 1 0 1 -6.06693 -2.15872 15.2378
607 1 1 0 1 -5.88681 4.41383 7.73261
608 1 1 0 1 1.80368 -5.02217 11.0952
609 1 1 0 1 4.13833 7.79592 12.424
610 1 1 0 1 0.109424 9.54309 9.9126
611 1 1 0 1 -2.29196 5.9206 8.40985
612 1 1 0 1 0.301935 3.98512 24.2068
613 1 1 0 1 0.767296 4.99464 17.5535
614 1 1 0 1 0.267433 10.7076 24.3927
615 1 1 0 1 -11.0918 5.78227 18.7984
616 1 1 0 1 -3.56618 10.1143 15.667
617 1 1 0 1 -0.349156 -0.170178 -3.44176
618 1 1 0 1 -9.51871 5.88488 2.67832
619 1 1 0 1 0.524936 18.6216 5.37474
620 1 1 0 1 1.84225 8.49049 5.33883
621 1 1 0 1 -1.91606 5.85925 5.81547
622 1 1 0 1 -7.92559 2.04627 2.03793
623 1 1 0 1 -0.105213 5.58913 4.77764
624 1 1 0 1 -4.33142 3.59106 2.32611
625 1 1 0 1 -2.19472 2.54032 4.75129
626 1 1 0 1 0.985685 3.79454 7.38429
627 1 1 0 1 -7.60107 -5.37682 16.7147
628 1 1 0 1 3.86275 -3.60454 8.31505
629 1 1 0 1 1.63954 10.7084 21.9288
630 1 1 0 1 2.25478 10.5134 19.1009
631 1 1 0 1 2.51032 8.14067 12.7863
632 1 1 0 1 7.0064 7.5082 15.979
633 1 1 0 1 -6.19338 10.3262 13.7527
634 1 1 0 1 -0.225375 5.11182 15.3021
635 1 1 0 1 0.463131 3.50429 17.2938
636 1 1 0 1 0.760274 1.31264 16.4805
637 1 1 0 1 -7.97079 5.20167 20.0635
638 1 1 0 1 0.459576 6.01581 21.1546
639 1 1 0 1 -3.22327 -3.56283 8.63
640 1 1 0 1 -0.723167 13.8692 9.91741
641 1 1 0 1 9.6828 7.43198 -1.63073
642 1 1 0 1 1.00045 16.3065 11.1788
643 1 1 0 1 1.44596 12.0798 14.7648
644 1 1 0 1 -4.4043 6.70337 -0.535749
645 1 1 0 1 -1.89485 4.65377 5.60811
646 1 1 0 1 0.553771 7.87873 6.77019
647 1 1 0 1 -5.82687 11.5366 -3.56381
648 1 1 0 1 -2.39009 11.651 12.2465
649 1 1 0 1 -2.11229 6.73276 5.28332
650 1 1 0 1 4.79697 5.00804 14.0708
651 1 1 0 1 0.159666 11.6437 9.44115
652 1 1 0 1 -1.37138 15.0888 17.9223
653 1 1 0 1 -2.79117 15.7907 12.174
654 1 1 0 1 1.51588 8.97951 20.8764
655 1 1 0 1 0.712226 6.52383 3.07042
656 1 1 0 1 -3.85231 4.17583 12.6229
657 1 1 0 1 3.95309 8.18747 17.3482
658 1 1 0 1 -0.361236 9.18107 23.1558
659 1 1 0 1 -5.49666 7.74206 13.5596
660 1 1 0 1 4.55475 8.23298 20.8695
661 1 1 0 1 -2.01118 8.79286 2.17027
662 1 1 0 1 1.68074 9.67784 -0.318174
663 1 1 0 1 -3.33313 7.0451 0.89934
664 1 1 0 1 -2.54784 9.66752 5.11321
665 1 1 0 1 -9.49258 1.27293 6.40215
666 1 1 0 1 9.81481 10.4511 9.71897
667 1 1 0 1 -4.2157 5.28589 -3.33238
668 1 1 0 1 -9.87407 4.00075 2.15931
669 1 1 0 1 8.68301 3.03661 3.39712
670 1 1 0 1 -4.87182 4.71878 8.5637
671 1 1 0 1 4.52532 3.12629 5.6022
672 1 1 0 1 -2.78905 16.7613 15.7382
673 1 1 0 1 -5.90284 15.9246 11.2087
674 1 1 0 1 -0.179119 14.3535 18.2488
675 1 1 0 1 -2.31762 10.4644 21.2445
676 1 1 0 1 -3.97787 -0.229152 16.8585
677 1 1 0 1 -0.885792 5.22508 18.1659
678 1 1 0 1 3.89759 6.87526 20.1723
679 1 1 0 1 -10.6803 8.32605 14.4705
680 1 1 0 1 0.110528 1.73293 14.4121
681 1 1 0 1 -4.23955 7.93988 20.9504
682 1 1 0 1 6.65887 10.8 25.1225
683 1 1 0 1 -3.79599 11.4302 1.50196
684 1 1 0 1 -5.08413 4.74717 -0.403299
685 1 1 0 1 0.142129 10.4265 4.71498
686 1 1 0 1 -2.10268 5.11544 4.5469
687 1 1 0 1 0.378457 14.5899 3.09321
688 1 1 0 1 -1.83602 12.8489 13.6049
689 1 1 0 1 -1.37997 3.35933 6.1836
690 1 1 0 1 3.70854 3.00303 14.7535
691 1 1 0 1 -1.22634 5.17873 2.00843
692 1 1 0 1 -4.72406 8.76348 7.25907
693 1 1 0 1 -2.49522 3.03366 18.3546
694 1 1 0 1 -9.62151 11.8772 13.9907
695 1 1 0 1 -2.07276 12.5451 15.1733
696 1 1 0 1 -6.14992 5.12534 19.7269
697 1 1 0 1 -0.881014 7.1637 19.1155
698 1 1 0 1 -4.96314 10.0006 15.3647
699 1 1 0 1 5.91556 7.44044 21.2613
700 1 1 0 1 2.30777 11.5348 18.8262
701 1 1 0 1 -4.24219 12.1827 19.7665
702 1 1 0 1 -4.35236 8.50394 20.1141
703 1 1 0 1 -4.6805 13.107 20.1838
704 1 1 0 1 6.49797 21.9974 19.2043
705 1 1 0 1 -2.24891 7.15228 3.66069
706 1 1 0 1 -2.04623 10.3524 -6.91489
707 1 1 0 1 0.00409853 27.1301 0.366319
708 1 1 0 1 3.32584 6.65635 3.34436
709 1 1 0 1 -9.58352 13.2157 4.57318
710 1 1 0 1 -4.31706 10.1527 -2.10708
711 1 1 0 1 -4.34212 8.60127 5.25945
712 1 1 0 1 -1.71491 13.4031 14.5274
713 1 1 0 1 -1.17415 9.67164 5.37733
714 1 1 0 1 -1.68146 14.4645 0.190385
715 1 1 0 1 -4.77141 11.1408 15.2722
716 1 1 0 1 -4.31748 16.4737 18.0217
717 1 1 0 1 -2.47208 14.8576 17.989
718 1 1 0 1 -2.16322 6.85111 13.7934
719 1 1 0 1 -4.54589 9.05201 15.3551
720 1 1 0 1 -4.5245 12.4297 23.3083
721 1 1 0 1 -7.9302 13.1058 13.4086
722 1 1 0 1 4.78537 19.9029 26.7281
723 1 1 0 1 -3.7582 10.9967 18.0771
724 1 1 0 1 -2.71874 16.8438 21.507
725 1 1 0 1 0.935556 13.6384 27.8195
726 1 1 0 1 -9.68196 17.0339 19.3716
727 1 1 0 1 2.81287 15.7207 2.21081
728 1 1 0 1 -2.6107 19.2382 -2.74399
729 1 1 0 1 -2.98206 4.03412 -7.3729
730 1 1 0 1 -2.1131 16.7568 6.55255
731 1 1 0 1 -0.188919 18.6413 6.07433
732 1 1 0 1 7.00538 11.8692 6.29687
733 1 1 0 1 -6.43582 10.9733 5.54788
734 1 1 0 1 2.87084 5.22754 1.27447
735 1 1 0 1 -7.14069 14.157 5.54567
736 1 1 0 1 -6.60677 18.1625 -2.75784
737 1 1 0 1 -0.368892 11.1254 16.0371
738 1 1 0 1 9.5797 13.7075 9.2187
739 1 1 0 1 -6.61056 5.29681 15.7706
740 1 1 0 1 -1.55873 9.73177 18.2339
741 1 1 0 1 -2.64412 8.8835 20.1338
742 1 1 0 1 3.20154 11.804 22.8811
743 1 1 0 1 -4.0059 9.04166 20.956
744 1 1 0 1 4.2991 16.0689 26.1979
745 1 1 0 1 -3.04444 11.5754 19.2694
746 1 1 0 1 -1.92532 14.8592 20.9115
747 1 1 0 1 5.3278 11.9012 22.8581
748 1 1 0 1 2.58746 12.7554 33.1896
749 1 1 0 1 1.85985 9.70263 1.33197
750 1 1 0 1 0.4446 12.6382 11.7017
751 1 1 0 1 -13.4794 12.1538 8.92078
752 1 1 0 1 -3.09459 17.5734 11.878
753 1 1 0 1 -4.41224 12.0225 8.95802
754 1 1 0 1 5.31492 12.1582 1.87478
755 1 1 0 1 0.0963649 17.4418 1.84422
756 1 1 0 1 -7.9365 25.3454 3.54531
757 1 1 0 1 -4.23447 11.7163 12.123
758 1 1 0 1 -7.40944 21.7889 10.7374
759 1 1 0 1 -3.84999 10.1688 4.59757
760 1 1 0 1 -0.207691 2.85997 16.2947
761 1 1 0 1 -6.28142 16.3682 18.4724
762 1 1 0 1 -9.38436 13.3361 10.2034
763 1 1 0 1 6.96828 18.8269 10.6691
764 1 1 0 1 -2.41861 18.0899 14.0173
765 1 1 0 1 2.25326 13.0373 19.0092
766 1 1 0 1 -4.17279 14.7272 15.106
767 1 1 0 1 -12.2473 14.6613 19.4149
768 1 1 0 1 -5.62826 16.5931 24.7509
769 1 1 0 1 8.76653 7.93328 23.9391
770 1 1 0 1 -0.925479 15.894 24.9298
771 1 1 0 1 -4.82659 11.3707 1.16015
772 1 1 0 1 -0.16314 15.2555 14.3603
773 1 1 0 1 -3.06333 11.7345 2.45313
774 1 1 0 1 -2.78239 8.27271 14.2644
775 1 1 0 1 -5.3447 13.3314 -3.68005
776 1 1 0 1 -2.11461 9.44461 9.93405
777 1 1 0 1 0.0383343 15.5252 11.2238
778 1 1 0 1 -2.36892 13.7217 13.8384
779 1 1 0 1 0.19415 13.9849 20.9329
780 1 1 0 1 -2.62378 16.9258 8.14151
781 1 1 0 1 3.22071 19.5087 19.8303
782 1 1 0 1 -0.877765 17.2967 15.1065
783 1 1 0 1 -3.56613 13.5181 8.66201
784 1 1 0 1 -6.86187 15.9507 23.7801
785 1 1 0 1 -6.84319 25.9497 16.8661
786 1 1 0 1 -5.69882 10.0628 18.1064
787 1 1 0 1 3.83805 10.3436 24.4394
788 1 1 0 1 -10.6322 18.6688 12.9026
789 1 1 0 1 -5.08146 17.3642 17.6849
790 1 1 0 1 -5.15652 14.0922 25.0078
791 1 1 0 1 -6.81613 14.0368 19.7481
792 1 1 0 1 -5.70786 9.65423 21.5919
793 1 1 0 1 -8.80368 20.268 5.13449
794 1 1 0 1 -2.45156 17.6142 4.04016
795 1 1 0 1 5.09019 23.8711 -3.15141
796 1 1 0 1 0.337624 13.8815 9.61266
797 1 1 0 1 -3.77814 23.2867 -0.527682
798 1 1 0 1 2.31613 9.21258 -2.13784
799 1 1 0 1 -2.7431 13.8314 6.93385
800 1 1 0 1 4.02642 7.98094 0.1488
801 1 1 0 1 7.80815 14.8876 10.7027
802 1 1 0 1 -2.76028 19.8762 9.12033
803 1 1 0 1 0.660865 12.308 20.0094
804 1 1 0 1 -2.79766 16.8066 12.4902
805 1 1 0 1 -7.26788 14.7673 20.3559
806 1 1 0 1 -3.51007 2.64055 2.59363
807 1 1 0 1 0.181193 17.4753 15.8004
808 1 1 0 1 -2.23548 18.4004 12.6485
809 1 1 0 1 -3.57034 15.3493 12.8842