ITEM: TIMESTEP
2000
ITEM: NUMBER OF ATOMS
6752
ITEM: BOX BOUNDS pp pp pp
0.0000000000000000e+00 2.2000000000000000e+01
0.0000000000000000e+00 2.2000000000000000e+01
0.0000000000000000e+00 2.2000000000000000e+01
ITEM: ATOMS id mol type q mass xu yu zu
1 1 1 0 1 -3.84905 -2.38432 -0.407592
2 1 1 0 1 -2.07444 1.14085 1.88776
3 1 1 0 1 -2.85351 3.22273 2.14914
4 1 1 0 1 -1.6726 0.875725 5.16143
5 1 1 0 1 -4.36068 -0.584467 7.15167
6 1 1 0 1 -3.28677 3.67853 3.63902
7 1 1 0 1 -3.22781 7.15062 6.80302
8 1 1 0 1 -2.64888 1.35354 6.96241
9 1 1 0 1 -1.37111 -0.385043 7.63703
10 1 1 0 1 -4.6814 6.28183 8.95022
11 1 1 0 1 -3.89397 5.2266 10.1655
12 1 1 0 1 -1.44753 -0.255333 12.4208
13 1 1 0 1 -2.59512 1.72943 12.8508
14 1 1 0 1 -2.1471 6.67626 13.3897
15 1 1 0 1 -3.43513 3.97053 16.0607
16 1 1 0 1 -4.35469 -0.166649 13.4168
17 1 1 0 1 -2.1538 1.13639 14.7219
18 1 1 0 1 -2.79252 3.39073 17.7084
19 1 1 0 1 -1.87091 1.21453 18.1019
20 1 1 0 1 -3.84682 -2.30389 20.4915
21 1 1 0 1 -4.90951 6.24465 19.5153
22 1 1 0 1 -4.18388 6.19622 21.5937
23 1 1 0 1 -4.74754 3.16488 -0.30921
24 1 1 0 1 -4.52826 2.4304 1.29194
25 1 1 0 1 -4.31197 1.36522 -0.359596
26 1 1 0 1 -1.06412 0.427677 2.99247
27 1 1 0 1 -2.78156 0.797139 3.41693
28 1 1 0 1 -3.12819 3.61318 4.69959
29 1 1 0 1 -1.19571 0.601801 8.46408
30 1 1 0 1 -1.84465 -0.663898 6.54681
31 1 1 0 1 -2.5291 3.20797 7.87294
32 1 1 0 1 -3.75137 1.70875 8.16542
33 1 1 0 1 -3.87986 1.44068 11.8664
34 1 1 0 1 -2.56598 2.78827 12.1374
35 1 1 0 1 -1.92269 -0.45223 13.4402
36 1 1 0 1 -1.09828 1.21801 12.1388
37 1 1 0 1 -2.72575 3.06796 15.1643
38 1 1 0 1 -2.58273 0.965623 17.0591
39 1 1 0 1 -1.098 0.662332 16.9845
40 1 1 0 1 -3.86315 2.14484 20.4665
41 1 1 0 1 -4.33231 2.18401 18.4635
42 1 1 0 1 -4.6886 2.8273 20.3277
43 1 1 0 1 -2.82816 6.04457 20.316
44 1 1 0 1 -2.72488 4.63728 21.4074
45 1 1 0 1 -5.04224 4.64978 2.82548
46 1 1 0 1 -4.97892 10.0433 7.35962
47 1 1 0 1 -2.87304 3.02258 0.629511
48 1 1 0 1 -4.57009 4.83863 4.80155
49 1 1 0 1 -1.87643 1.86165 2.60795
50 1 1 0 1 -2.74696 2.75094 3.08425
51 1 1 0 1 -2.48612 4.59777 4.9785
52 1 1 0 1 -2.87896 6.31972 9.53671
53 1 1 0 1 -2.08787 0.266642 7.68487
54 1 1 0 1 -3.51667 4.11068 9.45305
55 1 1 0 1 -3.8307 3.66395 11.0991
56 1 1 0 1 -2.23053 0.406463 12.6255
57 1 1 0 1 -3.89748 5.32301 11.4886
58 1 1 0 1 -2.30588 3.88657 14.3901
59 1 1 0 1 -2.98869 2.98859 16.5719
60 1 1 0 1 -2.22491 2.39279 17.7542
61 1 1 0 1 -4.58077 5.59784 15.0263
62 1 1 0 1 -2.62967 2.59944 18.6513
63 1 1 0 1 -4.42179 9.27265 12.6831
64 1 1 0 1 -5.12978 4.73142 17.4406
65 1 1 0 1 -5.00717 3.84072 20.0858
66 1 1 0 1 -5.34393 4.25099 22.4416
67 1 1 0 1 -3.64312 4.30046 2.78513
68 1 1 0 1 -1.94925 4.20987 0.206475
69 1 1 0 1 -0.272164 3.92224 1.73056
70 1 1 0 1 -2.51728 4.13723 2.82158
71 1 1 0 1 -0.242678 2.23381 3.80257
72 1 1 0 1 -2.19221 4.23673 3.9595
73 1 1 0 1 -2.09051 4.98676 6.41076
74 1 1 0 1 -2.9814 3.47921 5.98003
75 1 1 0 1 -4.75935 2.33529 7.95693
76 1 1 0 1 -1.86447 2.71591 9.39655
77 1 1 0 1 -1.55066 3.17514 11.2195
78 1 1 0 1 -5.16892 2.80798 12.6511
79 1 1 0 1 -3.19747 2.82592 13.868
80 1 1 0 1 -2.12801 5.24893 12.8995
81 1 1 0 1 -2.32496 4.58597 15.2468
82 1 1 0 1 -0.105132 1.9101 15.8538
83 1 1 0 1 -2.42625 3.96522 16.523
84 1 1 0 1 -0.60272 3.57203 18.6678
85 1 1 0 1 -2.24429 4.16453 19.4189
86 1 1 0 1 -3.80793 4.32532 17.2875
87 1 1 0 1 -3.47665 4.40145 19.2677
88 1 1 0 1 -3.15509 4.56041 22.3395
89 1 1 0 1 -4.30447 9.87739 2.84554
90 1 1 0 1 -3.93839 7.86196 2.61952
91 1 1 0 1 -1.84909 3.03343 2.50921
92 1 1 0 1 -4.96137 9.7027 6.40854
93 1 1 0 1 -3.67423 7.63656 4.68389
94 1 1 0 1 -5.3296 5.73001 8.46511
95 1 1 0 1 -5.20549 6.67629 7.74914
96 1 1 0 1 -4.78581 4.29932 9.24953
97 1 1 0 1 -5.59601 6.29037 9.70607
98 1 1 0 1 -3.91587 4.25445 7.261
99 1 1 0 1 -4.32003 4.44567 11.6697
100 1 1 0 1 -4.09426 6.69397 9.75863
101 1 1 0 1 -5.31418 5.39009 10.5673
102 1 1 0 1 -4.84316 5.94511 11.7074
103 1 1 0 1 -4.42407 5.21914 12.8405
104 1 1 0 1 -2.96354 7.36524 15.6753
105 1 1 0 1 -4.18527 8.35946 12.5911
106 1 1 0 1 -1.4399 3.22197 17.6128
107 1 1 0 1 -4.13407 7.86458 17.1059
108 1 1 0 1 -3.99811 10.7223 17.7447
109 1 1 0 1 -4.06734 7.07276 18.2277
110 1 1 0 1 -4.65483 6.69267 23.8628
111 1 1 0 1 -4.0807 4.73424 1.19034
112 1 1 0 1 -2.76481 5.25249 1.15278
113 1 1 0 1 -3.70513 9.592 5.14616
114 1 1 0 1 -2.47 5.06575 3.47702
115 1 1 0 1 -2.863 6.59989 5.15471
116 1 1 0 1 -3.12392 7.75686 5.72671
117 1 1 0 1 -2.24839 7.08457 5.92245
118 1 1 0 1 -3.45865 5.40258 7.36568
119 1 1 0 1 -2.98742 3.64744 7.04168
120 1 1 0 1 -1.98308 4.82172 10.3209
121 1 1 0 1 -2.9464 4.28326 10.4304
122 1 1 0 1 -3.12815 3.73569 12.7461
123 1 1 0 1 -3.32058 4.93901 13.0242
124 1 1 0 1 -2.15709 6.91088 14.4042
125 1 1 0 1 -3.62952 8.50167 13.6542
126 1 1 0 1 -2.98967 6.46416 15.1632
127 1 1 0 1 -2.19763 5.09214 16.6979
128 1 1 0 1 -3.04048 9.9247 15.1214
129 1 1 0 1 -3.09854 5.12669 18.1492
130 1 1 0 1 -4.06837 5.06136 18.5064
131 1 1 0 1 -4.0477 6.3467 18.9239
132 1 1 0 1 -3.7627 6.03599 23.2728
133 1 1 0 1 -5.3203 7.83499 0.422603
134 1 1 0 1 -4.073 5.75633 2.21674
135 1 1 0 1 -3.41655 5.62018 3.35033
136 1 1 0 1 -4.27246 9.58268 4.16119
137 1 1 0 1 -5.77394 10.1515 8.09004
138 1 1 0 1 -6.53813 10.8432 5.64549
139 1 1 0 1 -4.10541 8.84558 6.60025
140 1 1 0 1 -2.24592 8.29814 6.29127
141 1 1 0 1 -1.59532 7.31661 7.94413
142 1 1 0 1 -1.9014 6.91406 9.00049
143 1 1 0 1 -2.00909 5.72898 9.85412
144 1 1 0 1 -2.24407 7.52086 12.2209
145 1 1 0 1 -1.7004 7.54347 13.6083
146 1 1 0 1 -3.18129 9.01192 12.4967
147 1 1 0 1 -5.35721 11.1522 14.6046
148 1 1 0 1 -5.36746 9.77205 13.0293
149 1 1 0 1 -5.11311 9.35726 16.2605
150 1 1 0 1 -3.3855 6.00175 16.5958
151 1 1 0 1 -4.46998 5.83161 17.605
152 1 1 0 1 -4.60411 7.39688 19.3619
153 1 1 0 1 -2.78106 6.5986 19.1864
154 1 1 0 1 -3.45207 6.37925 22.3611
155 1 1 0 1 -2.66729 5.4559 0.0556965
156 1 1 0 1 -2.15009 6.83861 2.24399
157 1 1 0 1 -3.22124 7.08309 3.63882
158 1 1 0 1 -1.95849 8.19617 2.63302
159 1 1 0 1 -4.45576 8.87746 2.36143
160 1 1 0 1 -4.79319 10.0726 4.96832
161 1 1 0 1 -2.96366 8.99969 5.47498
162 1 1 0 1 -1.24426 7.51471 5.86616
163 1 1 0 1 -0.636882 6.94398 6.98911
164 1 1 0 1 -2.06385 8.25622 7.61762
165 1 1 0 1 -2.38016 8.61104 11.7751
166 1 1 0 1 -0.831948 6.89677 12.4211
167 1 1 0 1 -1.37558 7.77083 14.7357
168 1 1 0 1 -2.92144 8.85271 15.2268
169 1 1 0 1 -4.81785 9.46701 14.4095
170 1 1 0 1 -4.3921 9.48634 17.2179
171 1 1 0 1 -1.99624 8.32054 17.5493
172 1 1 0 1 -3.01051 7.07937 16.6636
173 1 1 0 1 -2.15171 7.06588 17.6239
174 1 1 0 1 -3.11263 5.62035 19.1317
175 1 1 0 1 -2.52369 8.52092 20.2038
176 1 1 0 1 -2.34653 9.17818 21.2187
177 1 1 0 1 -2.9633 7.81445 0.183652
178 1 1 0 1 -2.61381 10.3461 1.67933
179 1 1 0 1 -4.34284 11.6918 4.27824
180 1 1 0 1 -3.85058 8.90939 1.44603
181 1 1 0 1 -3.95469 8.98195 3.30205
182 1 1 0 1 -3.31074 9.70399 4.17953
183 1 1 0 1 -2.22238 9.4296 4.72338
184 1 1 0 1 -2.15397 9.44555 6.30662
185 1 1 0 1 -0.783583 7.05997 9.33558
186 1 1 0 1 -4.81317 11.0263 7.84234
187 1 1 0 1 -5.61077 10.7357 12.7678
188 1 1 0 1 -1.06104 7.06068 11.305
189 1 1 0 1 -2.31223 9.63975 14.4257
190 1 1 0 1 -1.80441 9.75639 15.5251
191 1 1 0 1 -3.67536 10.2555 16.7241
192 1 1 0 1 -3.78485 8.90938 16.6971
193 1 1 0 1 -3.09711 8.67948 19.2885
194 1 1 0 1 -4.14721 11.1746 15.8998
195 1 1 0 1 -3.06153 9.7155 18.8298
196 1 1 0 1 -3.72413 8.28696 20.0572
197 1 1 0 1 -1.94187 9.78053 19.1816
198 1 1 0 1 -2.09044 10.0796 22.8269
199 1 1 0 1 -3.46536 9.25124 2.41843
200 1 1 0 1 -3.26842 11.4672 0.863395
201 1 1 0 1 -4.60283 9.43619 -0.224469
202 1 1 0 1 -3.30869 10.2462 2.87725
203 1 1 0 1 -4.03481 10.5692 4.22872
204 1 1 0 1 -3.30934 11.2715 4.33261
205 1 1 0 1 -3.16756 8.88356 7.13811
206 1 1 0 1 -0.840712 7.89736 7.47984
207 1 1 0 1 -4.2983 8.13814 5.50402
208 1 1 0 1 -2.47239 7.87351 8.65501
209 1 1 0 1 -3.45677 8.64285 10.4118
210 1 1 0 1 -2.78856 9.06789 13.6397
211 1 1 0 1 -1.0744 7.88773 12.088
212 1 1 0 1 -2.08322 8.34571 12.7043
213 1 1 0 1 -2.46933 10.886 15.6104
214 1 1 0 1 -4.11009 10.7555 14.6489
215 1 1 0 1 -3.07274 10.1735 17.7381
216 1 1 0 1 -4.53501 9.46442 20.6063
217 1 1 0 1 -3.31918 11.7443 19.4861
218 1 1 0 1 -3.48138 8.89373 17.7091
219 1 1 0 1 -1.90588 9.61772 20.2658
220 1 1 0 1 -1.65141 9.9425 21.4724
221 1 1 0 1 -2.43334 12.0717 -0.194493
222 1 1 0 1 -3.83027 12.106 0.143923
223 1 1 0 1 -3.81791 13.7017 4.90515
224 1 1 0 1 -4.38545 11.6438 2.60159
225 1 1 0 1 -5.52166 11.0674 4.41658
226 1 1 0 1 -1.55919 12.9279 4.63421
227 1 1 0 1 -5.90575 9.95142 5.24039
228 1 1 0 1 -1.30273 10.2513 6.09664
229 1 1 0 1 -3.68245 9.26729 9.06415
230 1 1 0 1 -3.70494 8.49428 7.9552
231 1 1 0 1 -4.51863 8.79973 11.7148
232 1 1 0 1 -2.30704 9.19407 10.6819
233 1 1 0 1 -1.88992 9.48675 13.218
234 1 1 0 1 -6.08393 9.579 14.4166
235 1 1 0 1 -2.05389 12.4516 16.2188
236 1 1 0 1 -5.49561 10.9204 15.9201
237 1 1 0 1 -4.79643 10.34 16.4934
238 1 1 0 1 -2.82444 13.3015 14.7794
239 1 1 0 1 -3.78347 12.8396 19.9834
240 1 1 0 1 -2.52148 12.4625 20.0937
241 1 1 0 1 -2.80743 11.2936 20.466
242 1 1 0 1 -2.84009 10.0188 21.4347
243 1 1 0 1 -3.14517 11.0574 -0.227083
244 1 1 0 1 -1.92178 11.892 1.0622
245 1 1 0 1 -3.44328 12.2074 3.75665
246 1 1 0 1 -2.21326 11.946 3.85684
247 1 1 0 1 -4.63297 11.0713 5.11856
248 1 1 0 1 -3.44777 10.297 5.96396
249 1 1 0 1 -2.87281 12.2313 5.8505
250 1 1 0 1 -2.07308 10.7248 8.97004
251 1 1 0 1 -1.95844 9.12086 7.94012
252 1 1 0 1 -1.73424 8.95583 8.96387
253 1 1 0 1 -1.6316 8.76258 10.1484
254 1 1 0 1 -2.35665 9.63819 12.3093
255 1 1 0 1 -4.01171 11.0428 11.3447
256 1 1 0 1 -3.33916 11.4629 14.3187
257 1 1 0 1 -3.02084 10.4074 14.1658
258 1 1 0 1 -4.60579 11.7898 14.0196
259 1 1 0 1 -2.73041 11.885 16.674
260 1 1 0 1 -3.78527 13.2974 15.4116
261 1 1 0 1 -2.32468 11.5498 18.4049
262 1 1 0 1 -3.41253 11.9445 21.0399
263 1 1 0 1 -1.87515 11.7982 20.5207
264 1 1 0 1 -1.69889 12.6784 21.4331
265 1 1 0 1 -1.96749 12.8697 1.38536
266 1 1 0 1 -1.45 13.7354 1.31289
267 1 1 0 1 -3.71574 13.6751 6.60664
268 1 1 0 1 -2.95381 13.4551 2.04382
269 1 1 0 1 -3.96657 11.247 6.25256
270 1 1 0 1 -5.43093 10.663 5.72504
271 1 1 0 1 -2.07202 13.091 6.18665
272 1 1 0 1 -2.80557 9.82318 7.92511
273 1 1 0 1 -3.02241 11.1179 8.28147
274 1 1 0 1 -4.10374 8.01972 9.91153
275 1 1 0 1 -5.66157 8.54082 10.7375
276 1 1 0 1 -2.79638 10.5309 11.4022
277 1 1 0 1 -3.54603 9.92812 12.3106
278 1 1 0 1 -2.54878 13.7421 13.5831
279 1 1 0 1 -4.67398 10.7056 13.5468
280 1 1 0 1 -3.95632 12.4688 13.2831
281 1 1 0 1 -3.27165 13.3895 17.3763
282 1 1 0 1 -3.33988 13.4555 13.0685
283 1 1 0 1 -1.54006 13.9763 18.608
284 1 1 0 1 -1.86926 13.1666 17.9142
285 1 1 0 1 -2.92545 12.5768 18.8573
286 1 1 0 1 -2.96107 12.5384 22.9979
287 1 1 0 1 -2.75036 14.5606 1.94872
288 1 1 0 1 -1.40193 12.9888 3.37098
289 1 1 0 1 -3.85384 10.3521 8.06276
290 1 1 0 1 -3.24199 14.1905 3.25099
291 1 1 0 1 -3.83876 9.80514 6.79349
292 1 1 0 1 -2.92933 14.1201 7.2681
293 1 1 0 1 -2.13477 12.1286 6.86871
294 1 1 0 1 -1.37947 14.0959 6.38924
295 1 1 0 1 -3.0754 12.9041 9.30783
296 1 1 0 1 -2.20862 10.7818 10.0431
297 1 1 0 1 -3.41266 11.9889 8.86399
298 1 1 0 1 -1.91795 12.2855 11.7871
299 1 1 0 1 -1.17007 13.7528 13.0269
300 1 1 0 1 -2.17503 11.7097 13.6357
301 1 1 0 1 -2.14707 14.044 12.5506
302 1 1 0 1 -4.08659 9.85963 13.8474
303 1 1 0 1 -3.15333 13.8058 16.2091
304 1 1 0 1 -3.91268 10.4386 9.50417
305 1 1 0 1 -2.4398 13.2562 16.7432
306 1 1 0 1 -3.03703 14.3862 17.6904
307 1 1 0 1 -2.43594 13.5509 18.9809
308 1 1 0 1 -2.54746 13.7548 23.2207
309 1 1 0 1 -4.21291 13.2752 2.01704
310 1 1 0 1 -4.25461 13.5885 3.59657
311 1 1 0 1 -5.53271 14.0839 1.54279
312 1 1 0 1 -4.95942 13.7935 6.68922
313 1 1 0 1 -2.89802 15.3425 6.24278
314 1 1 0 1 -4.20171 10.6847 7.07505
315 1 1 0 1 -3.01743 10.7333 6.9767
316 1 1 0 1 -3.94305 11.6956 7.93217
317 1 1 0 1 -2.18209 14.1869 8.13068
318 1 1 0 1 -3.88554 13.7708 9.93771
319 1 1 0 1 -4.27056 12.8538 10.7011
320 1 1 0 1 -2.21009 14.9128 11.1707
321 1 1 0 1 -2.74883 12.7542 12.9423
322 1 1 0 1 -2.67529 10.8061 12.2943
323 1 1 0 1 -5.29051 10.4 11.6097
324 1 1 0 1 -2.55044 15.1306 14.8538
325 1 1 0 1 -4.48458 14.0705 13.4896
326 1 1 0 1 -5.39413 14.1026 17.9871
327 1 1 0 1 -4.20235 13.5275 16.715
328 1 1 0 1 -4.60742 13.598 17.6731
329 1 1 0 1 -1.58538 13.1145 20.5534
330 1 1 0 1 -0.959384 13.786 21.3725
331 1 1 0 1 -2.55431 14.8906 0.595701
332 1 1 0 1 -2.2955 16.9549 1.35455
333 1 1 0 1 -2.68804 15.6604 4.04765
334 1 1 0 1 -2.81736 14.641 4.07658
335 1 1 0 1 -2.6174 16.6415 6.05413
336 1 1 0 1 -5.58384 14.9492 7.11135
337 1 1 0 1 -2.21238 15.9323 6.71378
338 1 1 0 1 -2.80788 15.2941 7.48495
339 1 1 0 1 -2.36937 15.5968 8.48015
340 1 1 0 1 -4.20807 13.1089 8.89462
341 1 1 0 1 -3.7433 13.0689 11.9837
342 1 1 0 1 -2.34186 15.6444 12.1146
343 1 1 0 1 -3.17047 15.3427 13.667
344 1 1 0 1 -2.16563 15.7702 13.4119
345 1 1 0 1 -6.17624 14.8854 12.5248
346 1 1 0 1 -1.8853 17.0953 14.5137
347 1 1 0 1 -2.97473 14.9626 16.5349
348 1 1 0 1 -2.35144 16.1509 15.7365
349 1 1 0 1 -2.24515 16.6326 18.7011
350 1 1 0 1 -2.33663 14.6396 19.6587
351 1 1 0 1 -4.31386 13.7729 20.1628
352 1 1 0 1 -4.42093 13.1961 21.9869
353 1 1 0 1 -4.24764 12.7757 4.46806
354 1 1 0 1 -4.25056 15.9526 3.03453
355 1 1 0 1 -4.59688 11.5865 8.92142
356 1 1 0 1 -5.18109 14.2673 3.99154
357 1 1 0 1 -2.22859 16.3786 2.45875
358 1 1 0 1 -2.36424 15.9466 5.26776
359 1 1 0 1 -4.16802 15.8333 6.09649
360 1 1 0 1 -3.41796 13.2502 7.81176
361 1 1 0 1 -5.11568 15.5611 9.77232
362 1 1 0 1 -2.54583 16.0149 9.40333
363 1 1 0 1 -2.99785 16.6992 11.5433
364 1 1 0 1 -5.74361 16.0612 10.7273
365 1 1 0 1 -3.05685 13.8529 11.9553
366 1 1 0 1 -2.89039 16.1863 14.0792
367 1 1 0 1 -1.73405 15.8577 14.3167
368 1 1 0 1 -2.56178 16.3935 17.7329
369 1 1 0 1 -5.50456 14.9487 16.2642
370 1 1 0 1 -3.78866 11.7475 10.0252
371 1 1 0 1 -3.53712 15.4181 17.6905
372 1 1 0 1 -5.06974 12.8142 15.4419
373 1 1 0 1 -3.42465 13.536 19.4326
374 1 1 0 1 -3.49438 13.9777 22.5341
375 1 1 0 1 -4.47016 14.6327 1.98576
376 1 1 0 1 -5.25077 12.2642 4.64447
377 1 1 0 1 -5.50822 15.7022 5.2575
378 1 1 0 1 -2.60772 16.9259 4.97608
379 1 1 0 1 -3.20285 15.249 5.13677
380 1 1 0 1 -4.57491 15.551 7.37136
381 1 1 0 1 -3.20606 17.4062 6.28793
382 1 1 0 1 -3.85273 17.7653 8.11769
383 1 1 0 1 -1.89419 18.7401 9.27539
384 1 1 0 1 -2.84003 17.2653 9.44158
385 1 1 0 1 -2.36214 17.3148 10.6791
386 1 1 0 1 -2.02044 18.8002 10.7046
387 1 1 0 1 -3.60789 17.7409 12.3557
388 1 1 0 1 -3.08746 17.6825 13.4861
389 1 1 0 1 -5.43033 15.9436 11.8626
390 1 1 0 1 -3.35003 15.9675 15.2006
391 1 1 0 1 -2.82162 17.27 15.0221
392 1 1 0 1 -5.25376 15.6263 14.3105
393 1 1 0 1 -5.69142 12.2777 14.6762
394 1 1 0 1 -4.0907 14.4934 17.3771
395 1 1 0 1 -4.41861 13.993 18.5706
396 1 1 0 1 -4.58944 14.1623 22.999
397 1 1 0 1 -1.84767 15.608 1.29295
398 1 1 0 1 -1.97931 18.2031 2.16816
399 1 1 0 1 -3.19493 16.4396 3.16596
400 1 1 0 1 -4.45536 15.6255 4.17578
401 1 1 0 1 -4.96739 12.9232 7.87446
402 1 1 0 1 -3.60655 14.7454 6.74854
403 1 1 0 1 -2.87331 12.9736 6.95203
404 1 1 0 1 -3.90907 16.2799 7.06688
405 1 1 0 1 -4.32494 17.5233 7.12663
406 1 1 0 1 -3.13368 18.54 8.81085
407 1 1 0 1 -3.57644 17.999 9.97776
408 1 1 0 1 -4.92327 17.8714 12.4927
409 1 1 0 1 -3.59491 16.3817 13.2291
410 1 1 0 1 -2.84815 12.4184 14.2344
411 1 1 0 1 -3.78996 14.714 12.6995
412 1 1 0 1 -4.85805 13.3353 12.7915
413 1 1 0 1 -4.04622 16.0926 16.1706
414 1 1 0 1 -3.49581 16.7736 16.6585
415 1 1 0 1 -1.9818 18.4465 17.6254
416 1 1 0 1 -1.71114 15.4831 18.6643
417 1 1 0 1 -0.547108 15.2684 20.4891
418 1 1 0 1 -0.782751 15.4351 21.3934
419 1 1 0 1 -2.93266 18.9336 2.91181
420 1 1 0 1 -2.33547 19.907 4.90716
421 1 1 0 1 -3.42811 18.6265 5.92299
422 1 1 0 1 -4.28471 14.8276 4.80561
423 1 1 0 1 -3.15132 19.3044 4.74935
424 1 1 0 1 -2.38669 18.362 6.91359
425 1 1 0 1 -2.98407 20.8558 5.00051
426 1 1 0 1 -2.56482 17.2849 7.33692
427 1 1 0 1 -2.25479 18.7561 8.23969
428 1 1 0 1 -2.18523 21.1094 9.26459
429 1 1 0 1 -1.93244 21.1729 10.9414
430 1 1 0 1 -2.26462 19.0635 11.8885
431 1 1 0 1 -3.2322 18.7136 12.8509
432 1 1 0 1 -3.28977 21.0159 15.0326
433 1 1 0 1 -2.26768 18.7044 13.4769
434 1 1 0 1 -3.30129 19.2227 15.2307
435 1 1 0 1 -3.98321 14.9767 16.2436
436 1 1 0 1 -3.68159 18.4831 14.0408
437 1 1 0 1 -2.34593 20.1002 15.4158
438 1 1 0 1 -3.05206 18.8168 17.1252
439 1 1 0 1 -4.43005 18.6009 17.894
440 1 1 0 1 -4.04218 18.5906 24.178
441 1 1 0 1 -2.36687 16.2684 0.411943
442 1 1 0 1 -2.53068 18.8866 3.93495
443 1 1 0 1 -6.22783 19.7324 2.65251
444 1 1 0 1 -2.54958 22.0781 4.75861
445 1 1 0 1 -4.5961 18.7817 4.3024
446 1 1 0 1 -2.90074 10.1551 10.3296
447 1 1 0 1 -4.55892 20.6338 5.06575
448 1 1 0 1 -5.92545 17.7708 7.94458
449 1 1 0 1 -4.39904 18.9421 8.33168
450 1 1 0 1 -4.23629 18.0827 9.10254
451 1 1 0 1 -4.26592 19.0884 10.371
452 1 1 0 1 -4.9178 19.4517 11.6326
453 1 1 0 1 -5.92539 17.725 12.1367
454 1 1 0 1 -4.6354 21.0764 15.446
455 1 1 0 1 -5.74572 9.59028 10.2454
456 1 1 0 1 -4.46938 18.3428 15.8266
457 1 1 0 1 -2.29657 22.0069 15.3308
458 1 1 0 1 -6.32831 19.9311 17.3666
459 1 1 0 1 -2.43028 19.1341 16.1969
460 1 1 0 1 -2.23942 16.0257 20.0172
461 1 1 0 1 -3.1455 21.5657 17.4544
462 1 1 0 1 -3.25759 21.5896 24.521
463 1 1 0 1 -1.96503 24.0963 -0.370575
464 1 1 0 1 -3.9426 19.6863 1.52185
465 1 1 0 1 -2.66109 23.0768 5.67907
466 1 1 0 1 -1.73824 22.1545 4.00575
467 1 1 0 1 -4.63424 20.5817 3.85365
468 1 1 0 1 -2.56796 20.4997 5.87167
469 1 1 0 1 -3.8495 19.3446 6.68112
470 1 1 0 1 -3.19386 22.1436 5.70634
471 1 1 0 1 -3.44065 18.3079 7.1144
472 1 1 0 1 -2.12345 22.1272 8.74519
473 1 1 0 1 -1.74386 22.3072 11.1881
474 1 1 0 1 -4.2866 18.7039 12.43
475 1 1 0 1 -2.88691 22.1228 14.5186
476 1 1 0 1 -3.4779 19.4767 13.728
477 1 1 0 1 -2.69751 20.2682 14.4136
478 1 1 0 1 -4.38853 20.4406 16.3415
479 1 1 0 1 -1.71216 22.04 16.2631
480 1 1 0 1 -2.36199 23.7698 13.8791
481 1 1 0 1 -4.00389 19.6989 18.5734
482 1 1 0 1 -1.93541 24.4019 20.0037
483 1 1 0 1 -1.48785 21.1574 18.8962
484 1 1 0 1 -1.41614 21.1031 23.0517
485 1 1 0 1 -3.31177 -1.32638 1.72325
486 1 1 0 1 -2.41472 -0.903493 -0.0530209
487 1 1 0 1 -1.43669 -0.619871 2.07161
488 1 1 0 1 -1.27044 -0.828554 3.63912
489 1 1 0 1 -1.15984 0.287432 6.48306
490 1 1 0 1 -2.32048 1.47337 4.50517
491 1 1 0 1 -0.209492 0.772758 6.62263
492 1 1 0 1 -1.10428 -1.36716 7.08696
493 1 1 0 1 0.231506 0.0309665 8.5462
494 1 1 0 1 -3.47034 0.634191 7.47417
495 1 1 0 1 -3.21043 0.477159 11.899
496 1 1 0 1 0.0589051 -0.166925 10.942
497 1 1 0 1 -0.959088 -1.10845 12.9322
498 1 1 0 1 -0.239864 1.02711 13.8316
499 1 1 0 1 -1.95417 0.905942 15.7471
500 1 1 0 1 -1.45501 0.654642 13.9907
501 1 1 0 1 -1.16781 -0.846504 16.4659
502 1 1 0 1 -1.32007 -0.633314 17.9063
503 1 1 0 1 -2.54177 -0.659334 20.2142
504 1 1 0 1 -3.4092 -1.35987 18.3222
505 1 1 0 1 -4.07982 1.16117 18.3088
506 1 1 0 1 -4.16034 0.971405 23.3538
507 1 1 0 1 -0.454733 0.23577 0.792273
508 1 1 0 1 -1.4311 2.49627 1.68865
509 1 1 0 1 -1.63888 0.429647 1.24621
510 1 1 0 1 -0.489737 1.26712 2.47108
511 1 1 0 1 -0.759326 1.63586 4.88609
512 1 1 0 1 -0.859681 2.93586 6.54788
513 1 1 0 1 -2.02126 1.59216 7.76
514 1 1 0 1 -1.1994 1.32741 7.26479
515 1 1 0 1 -0.357115 1.9052 6.8435
516 1 1 0 1 -2.17122 1.18296 9.07463
517 1 1 0 1 -2.0476 1.28338 11.1734
518 1 1 0 1 -0.609753 1.69074 13.0158
519 1 1 0 1 -0.769118 0.392787 12.8823
520 1 1 0 1 -1.90758 1.81642 12.1508
521 1 1 0 1 -1.27696 2.50951 13.3139
522 1 1 0 1 -0.197378 1.19554 14.8749
523 1 1 0 1 -0.362733 1.31429 17.541
524 1 1 0 1 -1.73349 0.215455 18.5348
525 1 1 0 1 -1.57802 1.955 19.0319
526 1 1 0 1 -0.646084 0.407975 19.2693
527 1 1 0 1 0.806004 0.669293 19.3685
528 1 1 0 1 0.810546 0.708056 22.7422
529 1 1 0 1 -1.57029 3.17237 0.193694
530 1 1 0 1 -2.93458 0.696319 -0.556428
531 1 1 0 1 -0.602611 0.340481 1.87402
532 1 1 0 1 -3.90735 2.72452 0.568429
533 1 1 0 1 -0.978908 2.39193 2.52236
534 1 1 0 1 -2.28097 2.45888 4.34214
535 1 1 0 1 0.056842 2.24852 5.88005
536 1 1 0 1 -2.98793 4.66854 5.93152
537 1 1 0 1 -1.08813 2.28017 7.64109
538 1 1 0 1 -4.21311 1.71281 7.02937
539 1 1 0 1 -4.14613 1.52346 12.9376
540 1 1 0 1 -1.52922 2.97428 12.3714
541 1 1 0 1 -3.17344 4.35596 13.9862
542 1 1 0 1 -0.439666 2.50256 14.1384
543 1 1 0 1 -2.18449 2.07485 15.2475
544 1 1 0 1 -1.34433 1.70277 17.2398
545 1 1 0 1 -3.52045 3.13531 19.1862
546 1 1 0 1 -0.846009 0.2359 17.8387
547 1 1 0 1 -3.53064 1.10943 20.2495
548 1 1 0 1 -2.23959 3.44602 20.2762
549 1 1 0 1 -0.940845 1.39838 19.7149
550 1 1 0 1 -0.937002 1.83369 22.3883
551 1 1 0 1 -0.85924 2.84397 0.854632
552 1 1 0 1 0.0461897 4.56716 0.916087
553 1 1 0 1 -0.803631 3.22414 2.94684
554 1 1 0 1 0.217274 3.33085 2.66159
555 1 1 0 1 -0.730348 3.55158 5.65179
556 1 1 0 1 -1.58924 4.12254 5.50264
557 1 1 0 1 -2.00918 3.88438 6.49391
558 1 1 0 1 -3.90293 3.0849 7.79503
559 1 1 0 1 -1.75771 4.33983 7.43895
560 1 1 0 1 -2.67891 1.88886 8.50625
561 1 1 0 1 -2.82868 1.73097 11.6744
562 1 1 0 1 -1.89438 4.80877 11.7251
563 1 1 0 1 -3.5308 3.10987 11.9824
564 1 1 0 1 -2.35617 4.14374 13.3866
565 1 1 0 1 -1.46075 4.37033 14.6246
566 1 1 0 1 -0.402384 3.42078 14.3998
567 1 1 0 1 0.307006 3.62582 18.0371
568 1 1 0 1 -0.433417 2.93618 16.4691
569 1 1 0 1 0.0551899 4.3431 19.0471
570 1 1 0 1 -0.640589 2.50825 19.5659
571 1 1 0 1 1.03195 3.04808 20.451
572 1 1 0 1 1.13348 2.83126 21.5688
573 1 1 0 1 -1.28838 6.25879 0.6361
574 1 1 0 1 -3.19151 5.02874 4.21045
575 1 1 0 1 -2.11941 3.54084 1.24421
576 1 1 0 1 -2.44548 5.01625 2.24021
577 1 1 0 1 -1.45482 3.33897 4.55609
578 1 1 0 1 -2.28524 5.67423 5.17988
579 1 1 0 1 -2.63841 5.8079 6.41959
580 1 1 0 1 -2.21748 5.2184 7.61744
581 1 1 0 1 -4.53108 4.17183 8.13292
582 1 1 0 1 -2.93283 4.95445 9.4386
583 1 1 0 1 -2.42607 3.55608 10.0189
584 1 1 0 1 -4.62158 3.23853 11.8807
585 1 1 0 1 -3.37815 6.62161 12.1738
586 1 1 0 1 -3.66021 7.07756 14.0961
587 1 1 0 1 -2.64079 5.34198 14.2544
588 1 1 0 1 -1.71778 3.32981 15.3876
589 1 1 0 1 -2.76726 4.53314 17.2657
590 1 1 0 1 -1.55604 3.25042 19.0171
591 1 1 0 1 -3.24246 5.61674 15.6271
592 1 1 0 1 -1.00759 5.85711 19.7997
593 1 1 0 1 -1.28677 4.07967 20.2919
594 1 1 0 1 -1.77213 3.98513 21.119
595 1 1 0 1 -1.76969 5.35634 0.563812
596 1 1 0 1 -1.71977 4.76032 1.44446
597 1 1 0 1 -1.5035 4.10494 2.46034
598 1 1 0 1 -0.0169577 4.92819 3.47818
599 1 1 0 1 -0.631787 4.37237 4.57821
600 1 1 0 1 -0.283904 5.64434 4.42153
601 1 1 0 1 -1.51472 6.15798 5.82759
602 1 1 0 1 -0.429337 6.0385 7.55307
603 1 1 0 1 -0.399043 4.28847 7.82443
604 1 1 0 1 -1.12627 6.07966 9.14935
605 1 1 0 1 -1.06805 5.22052 10.0892
606 1 1 0 1 -0.909876 4.90783 12.9583
607 1 1 0 1 -0.562846 5.92197 13.0781
608 1 1 0 1 -2.91657 5.98122 13.388
609 1 1 0 1 -0.356025 5.26222 15.1484
610 1 1 0 1 -1.06873 4.10446 15.5855
611 1 1 0 1 0.261771 5.02253 17.1367
612 1 1 0 1 -1.59179 4.38763 17.4041
613 1 1 0 1 -2.21904 4.47384 18.2189
614 1 1 0 1 -1.93563 5.42719 18.9821
615 1 1 0 1 -2.23936 5.04403 20.6376
616 1 1 0 1 -1.10947 5.33675 21.2087
617 1 1 0 1 -0.87404 5.29369 1.28472
618 1 1 0 1 -3.98516 7.3815 1.51508
619 1 1 0 1 -3.07142 5.84837 2.45924
620 1 1 0 1 -4.853 8.9608 4.85299
621 1 1 0 1 -2.26768 6.00963 4.20227
622 1 1 0 1 -4.30117 8.44122 4.06088
623 1 1 0 1 -1.73166 7.04254 5.07027
624 1 1 0 1 -0.940826 5.01377 7.45863
625 1 1 0 1 -3.0846 6.16679 10.7826
626 1 1 0 1 -1.45373 6.27095 7.75514
627 1 1 0 1 -1.23095 5.71915 11.4186
628 1 1 0 1 -3.27145 7.2895 10.0131
629 1 1 0 1 -1.72292 6.21258 12.515
630 1 1 0 1 -1.75233 6.64022 15.3991
631 1 1 0 1 -3.82258 8.27589 15.0798
632 1 1 0 1 -2.14963 5.78854 15.8771
633 1 1 0 1 -4.60317 9.06201 15.4779
634 1 1 0 1 -2.57303 5.97348 17.5216
635 1 1 0 1 -2.93878 6.91368 18.1974
636 1 1 0 1 -0.966887 5.22931 18.8041
637 1 1 0 1 -4.10551 5.76378 20.6206
638 1 1 0 1 -2.74341 7.21133 21.2503
639 1 1 0 1 -2.66397 6.28874 1.24881
640 1 1 0 1 -0.589138 6.31444 1.48183
641 1 1 0 1 -0.999349 6.20277 2.55627
642 1 1 0 1 -1.13267 7.20773 2.91369
643 1 1 0 1 -2.827 8.13269 3.3011
644 1 1 0 1 -2.25043 7.64311 4.16689
645 1 1 0 1 -0.275829 8.21484 4.98327
646 1 1 0 1 -0.634499 8.06026 6.40274
647 1 1 0 1 -0.136492 6.52308 6.06463
648 1 1 0 1 -0.527496 8.36311 10.4731
649 1 1 0 1 -1.57268 6.47194 10.4382
650 1 1 0 1 0.219329 6.86146 13.9189
651 1 1 0 1 -0.567684 7.59988 13.8827
652 1 1 0 1 -0.511436 8.32131 14.6818
653 1 1 0 1 -2.35847 7.98661 15.0038
654 1 1 0 1 -2.79273 8.06383 17.0576
655 1 1 0 1 -1.18034 7.58339 17.4407
656 1 1 0 1 -1.15824 6.51521 17.6235
657 1 1 0 1 -0.8423 6.33896 18.7461
658 1 1 0 1 -1.91028 6.30179 18.4313
659 1 1 0 1 -0.160558 6.95895 20.3278
660 1 1 0 1 -0.737747 7.33296 21.4721
661 1 1 0 1 -2.1753 8.3388 0.888543
662 1 1 0 1 -1.45339 9.24388 0.256826
663 1 1 0 1 -1.63382 7.04065 1.43888
664 1 1 0 1 -1.19571 9.01507 3.37721
665 1 1 0 1 -3.11105 8.57541 4.4428
666 1 1 0 1 -2.14725 8.20753 5.01564
667 1 1 0 1 -1.87919 8.48455 3.98202
668 1 1 0 1 -1.67853 7.46822 6.94562
669 1 1 0 1 0.563385 8.4403 7.50291
670 1 1 0 1 -2.20286 7.64647 10.2497
671 1 1 0 1 -2.61526 7.39783 11.1309
672 1 1 0 1 0.572803 8.44976 12.2215
673 1 1 0 1 -1.18542 6.77506 14.0441
674 1 1 0 1 -1.63036 8.58954 15.5281
675 1 1 0 1 -1.45878 8.99986 14.6277
676 1 1 0 1 -3.03172 8.48279 16.183
677 1 1 0 1 -1.28785 9.23965 16.8198
678 1 1 0 1 -1.31859 7.59167 18.7721
679 1 1 0 1 -1.3027 8.88047 19.5315
680 1 1 0 1 -2.18345 8.19661 19.1374
681 1 1 0 1 -1.5209 8.42202 20.4364
682 1 1 0 1 -1.65889 8.25203 21.7652
683 1 1 0 1 -0.745202 10.0239 0.753377
684 1 1 0 1 -1.54173 9.35816 1.47132
685 1 1 0 1 -2.7124 11.9861 1.87057
686 1 1 0 1 -0.953995 8.39338 2.19328
687 1 1 0 1 -3.82429 11.1108 3.33737
688 1 1 0 1 -2.23915 9.53394 3.61962
689 1 1 0 1 -1.17134 9.22942 5.03869
690 1 1 0 1 -1.29948 8.63694 6.8996
691 1 1 0 1 -0.987482 9.81411 7.32692
692 1 1 0 1 0.73334 9.07443 9.1237
693 1 1 0 1 -1.50682 8.11734 11.1753
694 1 1 0 1 -1.27085 8.91181 12.3762
695 1 1 0 1 -1.2986 8.41891 13.5405
696 1 1 0 1 -0.496395 8.87451 15.6286
697 1 1 0 1 -2.23989 9.13348 16.4081
698 1 1 0 1 -3.60464 11.5727 17.1084
699 1 1 0 1 -0.691985 8.82504 17.7304
700 1 1 0 1 -2.81689 12.5205 17.8292
701 1 1 0 1 -1.26339 9.28804 18.536
702 1 1 0 1 -0.653265 9.88619 19.304
703 1 1 0 1 -0.701295 10.1845 20.591
704 1 1 0 1 -1.00493 10.7527 21.9517
705 1 1 0 1 -1.57907 10.329 1.70549
706 1 1 0 1 -2.41233 9.13829 2.02507
707 1 1 0 1 -2.06374 11.4767 2.94126
708 1 1 0 1 -1.44502 9.65434 2.61346
709 1 1 0 1 -3.17851 12.4785 2.74614
710 1 1 0 1 -2.59451 10.7076 3.93085
711 1 1 0 1 -0.407487 11.2023 5.16483
712 1 1 0 1 -1.50977 10.4399 4.94323
713 1 1 0 1 -0.864678 10.8771 7.02329
714 1 1 0 1 -1.00077 8.83037 8.07195
715 1 1 0 1 -1.42339 9.33861 11.2751
716 1 1 0 1 -1.54295 11.1601 12.6134
717 1 1 0 1 -1.05821 10.1751 14.7885
718 1 1 0 1 -0.334586 10.8249 14.5011
719 1 1 0 1 -2.54125 10.5723 16.7219
720 1 1 0 1 -3.58096 12.7281 16.2565
721 1 1 0 1 -1.25664 9.9009 17.5822
722 1 1 0 1 -1.66803 11.2804 17.0509
723 1 1 0 1 -2.38134 8.98765 18.1867
724 1 1 0 1 -2.02248 10.6899 17.8737
725 1 1 0 1 -1.48081 10.7865 20.7158
726 1 1 0 1 -2.13143 11.2128 21.3731
727 1 1 0 1 -1.10005 11.1466 0.933038
728 1 1 0 1 -1.33338 11.5612 1.92047
729 1 1 0 1 -3.08446 11.1605 2.30935
730 1 1 0 1 -1.60279 10.5578 3.56313
731 1 1 0 1 -2.19209 10.2988 2.62417
732 1 1 0 1 -2.9663 10.2342 5.03556
733 1 1 0 1 -0.17562 10.8373 3.5311
734 1 1 0 1 -2.95447 11.1722 5.89961
735 1 1 0 1 -1.16021 11.875 7.15222
736 1 1 0 1 -1.14173 11.7102 9.26001
737 1 1 0 1 -1.45725 11.1652 10.5989
738 1 1 0 1 -0.147819 11.7047 13.6981
739 1 1 0 1 -2.3912 10.6739 13.225
740 1 1 0 1 0.337524 10.6056 16.6335
741 1 1 0 1 -2.27943 11.0636 14.5824
742 1 1 0 1 -2.74981 11.2481 17.5053
743 1 1 0 1 -0.723748 10.8725 16.8147
744 1 1 0 1 -3.33781 11.1881 18.4961
745 1 1 0 1 -1.28235 11.8144 18.348
746 1 1 0 1 -1.23981 11.1463 19.7147
747 1 1 0 1 -0.386053 11.2726 20.5206
748 1 1 0 1 -1.12598 11.8177 21.4844
749 1 1 0 1 -0.336082 11.6599 1.78894
750 1 1 0 1 -0.955965 12.4857 2.56859
751 1 1 0 1 -1.28958 13.7564 2.47493
752 1 1 0 1 -1.94487 12.7206 2.5715
753 1 1 0 1 -0.474995 12.8779 4.57575
754 1 1 0 1 -2.30742 11.6995 4.94638
755 1 1 0 1 -1.542 12.2452 5.84567
756 1 1 0 1 -1.11416 13.0664 6.57124
757 1 1 0 1 -1.83781 11.6921 8.34345
758 1 1 0 1 -2.5025 11.6104 9.26991
759 1 1 0 1 -2.4712 11.486 10.7884
760 1 1 0 1 -0.705592 11.0786 12.0316
761 1 1 0 1 -0.585899 12.7302 13.5366
762 1 1 0 1 -1.80308 13.0026 14.3102
763 1 1 0 1 -2.31548 12.1776 15.0645
764 1 1 0 1 -1.26958 13.7803 16.2439
765 1 1 0 1 -1.97583 12.3277 17.263
766 1 1 0 1 -1.11721 13.1372 17.1824
767 1 1 0 1 -0.888082 12.1231 17.1753
768 1 1 0 1 -0.180439 11.7322 18.419
769 1 1 0 1 -0.535428 12.5254 20.5698
770 1 1 0 1 -0.615897 12.6197 21.5599
771 1 1 0 1 -0.610739 13.2652 0.55772
772 1 1 0 1 -1.6994 14.7248 2.254
773 1 1 0 1 -2.10687 13.6577 3.20105
774 1 1 0 1 -1.0144 14.7893 3.32147
775 1 1 0 1 -1.95724 14.1481 4.24135
776 1 1 0 1 -1.77069 14.0706 5.29465
777 1 1 0 1 -1.90833 15.1111 5.87543
778 1 1 0 1 -0.447723 13.7672 8.32385
779 1 1 0 1 -0.99919 13.6409 10.1408
780 1 1 0 1 -2.00621 12.5796 9.01169
781 1 1 0 1 -2.67889 12.5448 10.1586
782 1 1 0 1 -1.01648 11.9951 10.9171
783 1 1 0 1 -0.127006 13.8896 12.5508
784 1 1 0 1 -2.34177 14.6958 13.5233
785 1 1 0 1 -1.60007 13.2157 15.3792
786 1 1 0 1 -2.20735 13.9839 15.6992
787 1 1 0 1 -1.07019 14.9069 16.4145
788 1 1 0 1 -1.98903 14.4516 16.8089
789 1 1 0 1 -1.05507 14.4494 17.3663
790 1 1 0 1 -0.792971 13.2967 19.3028
791 1 1 0 1 -1.22471 12.3028 19.7686
792 1 1 0 1 -1.12447 12.2373 22.4396
793 1 1 0 1 -3.53107 14.0448 1.57326
794 1 1 0 1 0.181164 14.9562 1.53679
795 1 1 0 1 -0.388888 15.9051 2.48786
796 1 1 0 1 -1.97912 15.1061 3.44973
797 1 1 0 1 -1.35559 15.5222 4.36952
798 1 1 0 1 -2.19124 14.9433 4.94433
799 1 1 0 1 -1.09176 13.698 7.48757
800 1 1 0 1 -2.41788 12.9257 7.85695
801 1 1 0 1 -0.941976 14.7709 7.8232
802 1 1 0 1 -2.7898 14.6832 9.44056
803 1 1 0 1 -3.2303 12.8653 10.9662
804 1 1 0 1 -0.481254 14.9988 12.7755
805 1 1 0 1 -1.79277 12.9659 13.35
806 1 1 0 1 -0.94358 14.0832 11.9804
807 1 1 0 1 -2.02177 14.1612 14.5967