ITEM: TIMESTEP
4000
ITEM: NUMBER OF ATOMS
6752
ITEM: BOX BOUNDS pp pp pp
0.0000000000000000e+00 2.2000000000000000e+01
0.0000000000000000e+00 2.2000000000000000e+01
0.0000000000000000e+00 2.2000000000000000e+01
ITEM: ATOMS id mol type q mass xu yu zu
1 1 1 0 1 -3.60448 -2.14456 -1.39834
2 1 1 0 1 -2.84343 1.18929 0.0414299
3 1 1 0 1 -2.4288 3.21675 2.71772
4 1 1 0 1 -3.08093 0.229848 6.2536
5 1 1 0 1 -1.54026 0.915244 5.50314
6 1 1 0 1 -5.8638 3.98021 4.94514
7 1 1 0 1 -4.41284 7.35866 4.79262
8 1 1 0 1 -2.69024 0.425871 8.16452
9 1 1 0 1 -0.563247 -0.411295 7.22888
10 1 1 0 1 -6.2829 4.97748 6.2621
11 1 1 0 1 -3.6996 3.4893 9.30678
12 1 1 0 1 -1.56427 -1.67323 12.166
13 1 1 0 1 -2.45318 0.269958 14.0186
14 1 1 0 1 -0.0345431 5.61283 13.821
15 1 1 0 1 -4.63679 5.31126 16.4609
16 1 1 0 1 -4.30477 -3.06473 14.2114
17 1 1 0 1 -2.43767 1.95152 14.8767
18 1 1 0 1 -1.39351 3.63241 19.3258
19 1 1 0 1 -1.89948 2.00799 19.6162
20 1 1 0 1 -2.81063 -1.30477 19.827
21 1 1 0 1 -5.41943 4.80777 19.6218
22 1 1 0 1 -3.28174 5.99318 19.1767
23 1 1 0 1 -6.32982 5.35311 0.999122
24 1 1 0 1 -6.96836 1.96765 -0.525487
25 1 1 0 1 -3.1993 -1.32557 -1.05082
26 1 1 0 1 -1.9818 -0.167322 3.19627
27 1 1 0 1 -2.63737 0.282086 5.07135
28 1 1 0 1 -3.50486 2.46076 3.11166
29 1 1 0 1 -2.56901 0.832215 9.37913
30 1 1 0 1 -0.147999 -1.20926 6.06121
31 1 1 0 1 -3.6398 4.03144 10.4914
32 1 1 0 1 -5.44333 0.0779513 8.08362
33 1 1 0 1 -2.80754 1.56512 11.9421
34 1 1 0 1 -2.28985 2.38741 12.6395
35 1 1 0 1 -3.20158 -0.571767 13.9926
36 1 1 0 1 -0.864094 2.52371 8.56118
37 1 1 0 1 -5.05388 1.15683 14.483
38 1 1 0 1 -1.75342 0.281382 18.9554
39 1 1 0 1 -1.99459 0.366172 16.3772
40 1 1 0 1 -2.87141 2.87626 20.6758
41 1 1 0 1 -4.54277 1.52365 15.2882
42 1 1 0 1 -7.23074 1.55181 22.7171
43 1 1 0 1 -2.11909 6.75328 20.7608
44 1 1 0 1 -2.03283 4.28122 20.1746
45 1 1 0 1 -7.1402 5.84826 4.69075
46 1 1 0 1 -6.19969 9.50469 8.86904
47 1 1 0 1 -3.38775 0.395351 -1.05665
48 1 1 0 1 -7.31807 2.6549 4.62114
49 1 1 0 1 -0.420105 2.63032 2.40303
50 1 1 0 1 -4.4362 6.99764 1.94578
51 1 1 0 1 -2.26581 3.43178 5.81348
52 1 1 0 1 -2.50848 5.22637 12.0045
53 1 1 0 1 -4.29045 0.815724 8.2281
54 1 1 0 1 -3.68105 1.17906 11.1689
55 1 1 0 1 -4.09424 2.08238 10.5558
56 1 1 0 1 -2.61715 2.0757 13.7833
57 1 1 0 1 -3.61388 7.00244 10.1583
58 1 1 0 1 -1.33122 6.2173 13.8279
59 1 1 0 1 -3.04205 2.72732 15.2038
60 1 1 0 1 0.114265 0.387548 20.4033
61 1 1 0 1 -2.78999 6.07298 14.3814
62 1 1 0 1 -0.591844 1.71752 17.649
63 1 1 0 1 -2.69731 10.6109 12.0002
64 1 1 0 1 -6.16905 4.34543 18.6026
65 1 1 0 1 -5.95899 4.98252 20.5683
66 1 1 0 1 -6.92613 3.36149 24.6086
67 1 1 0 1 -5.5416 2.51624 2.71185
68 1 1 0 1 -3.20938 4.71626 -2.54629
69 1 1 0 1 0.619773 4.14846 1.84649
70 1 1 0 1 -4.03354 5.80172 1.97738
71 1 1 0 1 -0.300683 3.01776 4.22875
72 1 1 0 1 -4.03425 4.24153 1.8706
73 1 1 0 1 -1.4066 1.73287 6.39574
74 1 1 0 1 -3.5719 4.34229 4.17476
75 1 1 0 1 -4.69231 4.0974 7.31074
76 1 1 0 1 -1.15701 1.71568 7.57798
77 1 1 0 1 -0.593425 0.252609 12.3748
78 1 1 0 1 -6.03135 4.24787 12.6151
79 1 1 0 1 -1.70977 2.12006 11.7865
80 1 1 0 1 -2.52997 5.75165 12.9009
81 1 1 0 1 -1.98908 4.02077 16.387
82 1 1 0 1 -0.257693 2.45256 15.4732
83 1 1 0 1 -0.900185 3.80871 17.9893
84 1 1 0 1 -3.32919 2.58902 16.4395
85 1 1 0 1 -2.24792 3.20325 19.7438
86 1 1 0 1 -2.69544 4.97577 17.7275
87 1 1 0 1 -6.51275 2.85161 22.9462
88 1 1 0 1 -4.11272 6.37553 20.4737
89 1 1 0 1 -4.11095 9.05317 0.336928
90 1 1 0 1 -3.73273 9.33075 5.14938
91 1 1 0 1 -2.91238 2.09239 2.34961
92 1 1 0 1 -4.74102 9.64798 5.42031
93 1 1 0 1 -5.13509 7.81449 6.29815
94 1 1 0 1 -4.13312 3.46427 6.60568
95 1 1 0 1 -6.30145 7.53801 5.73258
96 1 1 0 1 -4.30469 4.78851 10.3838
97 1 1 0 1 -4.37323 6.51417 7.88164
98 1 1 0 1 -0.805158 3.52801 6.05919
99 1 1 0 1 -5.47886 6.64537 12.5697
100 1 1 0 1 -1.64034 3.82974 9.5022
101 1 1 0 1 -4.88577 4.59735 12.721
102 1 1 0 1 -5.04426 5.06318 13.8883
103 1 1 0 1 -4.87307 8.31251 12.5819
104 1 1 0 1 -2.09903 7.31497 18.0494
105 1 1 0 1 -2.96532 6.92815 12.8707
106 1 1 0 1 -2.55356 1.20022 18.237
107 1 1 0 1 -3.6336 6.73486 17.5353
108 1 1 0 1 -4.28037 9.01103 19.3271
109 1 1 0 1 -3.91296 5.57116 17.2051
110 1 1 0 1 -6.26686 8.05905 22.7422
111 1 1 0 1 -4.84847 1.73541 0.967322
112 1 1 0 1 -1.76351 6.89237 1.13448
113 1 1 0 1 -2.10673 9.57398 5.8945
114 1 1 0 1 -4.70572 5.67839 3.62819
115 1 1 0 1 -2.17972 8.44889 3.14022
116 1 1 0 1 -5.43935 7.42045 4.83418
117 1 1 0 1 -0.116312 6.89402 6.6454
118 1 1 0 1 -2.61351 5.30606 8.45097
119 1 1 0 1 -1.75397 2.05311 8.69119
120 1 1 0 1 -1.75622 3.33673 11.627
121 1 1 0 1 -4.04686 3.22198 11.0123
122 1 1 0 1 -6.85534 5.38803 10.0311
123 1 1 0 1 -3.12402 6.11202 10.6703
124 1 1 0 1 -2.86488 9.16428 13.5011
125 1 1 0 1 -7.59824 8.79622 12.2199
126 1 1 0 1 -2.76307 5.79429 16.7749
127 1 1 0 1 -1.90522 3.89918 17.5392
128 1 1 0 1 -4.66725 10.1276 16.402
129 1 1 0 1 -2.16667 4.54936 18.9018
130 1 1 0 1 -4.77459 2.85586 19.8371
131 1 1 0 1 -3.43706 3.87064 20.1375
132 1 1 0 1 -5.85459 6.88455 24.4628
133 1 1 0 1 -5.14426 7.03333 0.627954
134 1 1 0 1 -5.64621 2.45105 4.77238
135 1 1 0 1 -3.03648 4.76665 1.24713
136 1 1 0 1 -4.39668 9.6474 2.71391
137 1 1 0 1 -6.50656 8.67738 5.35614
138 1 1 0 1 -10.201 12.8795 5.85421
139 1 1 0 1 -1.39257 8.85152 6.10272
140 1 1 0 1 -1.20157 8.01683 5.17092
141 1 1 0 1 2.0621 3.89789 6.79195
142 1 1 0 1 -3.00875 1.93417 10.7208
143 1 1 0 1 -0.772035 4.40104 11.5584
144 1 1 0 1 -0.480098 4.76204 8.72799
145 1 1 0 1 -1.58683 9.41393 13.7194
146 1 1 0 1 -1.9868 7.80516 16.3091
147 1 1 0 1 -3.81553 11.8171 14.6302
148 1 1 0 1 -3.22518 10.9006 13.2382
149 1 1 0 1 -4.29823 10.2539 17.3725
150 1 1 0 1 -4.30138 7.27466 18.602
151 1 1 0 1 -1.7033 5.2371 20.534
152 1 1 0 1 -4.60768 5.55892 19.0137
153 1 1 0 1 -2.28461 5.72791 18.5069
154 1 1 0 1 -2.48212 6.96111 23.992
155 1 1 0 1 -4.09365 5.50966 -1.90758
156 1 1 0 1 -4.84859 4.76382 1.27047
157 1 1 0 1 -3.04914 8.71608 4.44152
158 1 1 0 1 -2.22638 7.62507 5.42972
159 1 1 0 1 -4.68301 9.54752 -0.469533
160 1 1 0 1 -7.31166 8.27383 4.55621
161 1 1 0 1 -3.13507 9.53393 6.24909
162 1 1 0 1 -1.89515 5.56222 5.05173
163 1 1 0 1 1.43672 8.69491 7.04292
164 1 1 0 1 -3.1669 7.64034 9.64846
165 1 1 0 1 -2.38101 9.4898 9.74038
166 1 1 0 1 -2.17089 8.09963 11.8771
167 1 1 0 1 -2.54 9.80015 12.7201
168 1 1 0 1 -3.1432 9.3016 19.7787
169 1 1 0 1 -4.78292 11.7439 15.5148
170 1 1 0 1 -4.80075 9.93343 18.9859
171 1 1 0 1 -1.58456 10.5107 16.2605
172 1 1 0 1 -1.96027 7.54961 19.3421
173 1 1 0 1 -1.37321 6.87678 17.0454
174 1 1 0 1 -3.08867 3.24238 22.9852
175 1 1 0 1 -3.35794 7.44679 18.9378
176 1 1 0 1 -1.25039 7.34108 21.8634
177 1 1 0 1 -3.52163 6.4882 0.26014
178 1 1 0 1 -1.14351 9.84786 1.98939
179 1 1 0 1 -4.40427 14.0546 4.82125
180 1 1 0 1 -2.73687 6.45706 0.909651
181 1 1 0 1 -4.08415 10.3641 5.80507
182 1 1 0 1 -3.97081 10.5346 4.88246
183 1 1 0 1 -2.76375 8.53723 5.41124
184 1 1 0 1 -2.8548 9.03964 7.24455
185 1 1 0 1 -0.331839 5.35214 9.6799
186 1 1 0 1 -7.4757 12.213 8.35182
187 1 1 0 1 -7.41745 11.3456 10.384
188 1 1 0 1 -1.42126 2.41741 10.1667
189 1 1 0 1 -1.86999 11.3341 13.8951
190 1 1 0 1 -2.47791 8.42244 18.4553
191 1 1 0 1 -1.84209 12.1896 18.1907
192 1 1 0 1 -3.17849 10.0508 18.0154
193 1 1 0 1 -3.3468 7.81748 17.9538
194 1 1 0 1 -5.96147 13.0003 18.5423
195 1 1 0 1 -3.58396 9.92643 19.0004
196 1 1 0 1 -2.8555 4.79518 20.4909
197 1 1 0 1 -4.14909 8.24193 20.4302
198 1 1 0 1 -2.0995 8.09161 23.2323
199 1 1 0 1 -2.76994 7.76378 0.482097
200 1 1 0 1 -2.32903 10.3202 1.46771
201 1 1 0 1 -4.45453 11.1037 0.664259
202 1 1 0 1 -3.22403 8.55799 1.12932
203 1 1 0 1 -2.60325 9.518 4.61883
204 1 1 0 1 -4.07128 10.4592 3.71035
205 1 1 0 1 -4.30241 9.06957 7.29321
206 1 1 0 1 1.9142 8.99543 8.45547
207 1 1 0 1 -4.69575 6.74037 3.45902
208 1 1 0 1 -4.78485 7.60888 11.1236
209 1 1 0 1 -1.54361 8.49291 8.69905
210 1 1 0 1 -1.273 10.363 13.7958
211 1 1 0 1 -3.32247 8.64271 11.215
212 1 1 0 1 -2.10518 11.3402 12.7646
213 1 1 0 1 -0.949168 13.4781 17.1734
214 1 1 0 1 -6.0588 11.627 16.887
215 1 1 0 1 -4.10372 10.7837 18.6383
216 1 1 0 1 -4.23438 10.1777 20.9145
217 1 1 0 1 -5.2418 11.8196 22.3756
218 1 1 0 1 -4.81317 8.07856 19.6544
219 1 1 0 1 -1.06959 10.4945 20.1477
220 1 1 0 1 -0.254424 8.19004 22.4046
221 1 1 0 1 -2.02259 11.4164 -1.00906
222 1 1 0 1 -3.54615 10.9175 1.82904
223 1 1 0 1 -6.24711 13.8895 6.33355
224 1 1 0 1 -4.04328 11.8625 3.51572
225 1 1 0 1 -4.48583 13.4209 5.65331
226 1 1 0 1 -4.29739 12.2104 6.62487
227 1 1 0 1 -9.79055 11.1471 5.09191
228 1 1 0 1 -0.654931 9.99566 4.3378
229 1 1 0 1 -5.71979 8.42705 8.73592
230 1 1 0 1 -5.54718 6.46233 9.19203
231 1 1 0 1 -4.06322 8.96118 13.1629
232 1 1 0 1 -1.74835 8.41398 9.97257
233 1 1 0 1 -2.39306 11.2141 15.1454
234 1 1 0 1 -8.90453 8.26676 11.6903
235 1 1 0 1 -2.63158 13.2655 15.5786
236 1 1 0 1 -6.70105 11.4596 15.8772
237 1 1 0 1 -4.88745 11.2361 17.8832
238 1 1 0 1 -1.119 11.9016 12.6726
239 1 1 0 1 -1.48595 12.7491 16.735
240 1 1 0 1 -3.10058 12.6203 17.5892
241 1 1 0 1 -4.05471 11.3337 20.9334
242 1 1 0 1 -3.28128 8.30665 20.9621
243 1 1 0 1 -3.49585 9.92455 0.981875
244 1 1 0 1 -3.41384 12.1889 -0.367386
245 1 1 0 1 -4.5121 13.0216 4.73925
246 1 1 0 1 -3.65596 13.7935 4.17302
247 1 1 0 1 -5.47849 11.8464 5.7104
248 1 1 0 1 -3.37329 7.89036 6.25025
249 1 1 0 1 -2.31781 8.35028 6.64257
250 1 1 0 1 -0.244315 8.02782 8.01885
251 1 1 0 1 0.104888 8.47161 9.62721
252 1 1 0 1 -0.732991 8.05453 7.06765
253 1 1 0 1 -1.01457 3.51957 10.9672
254 1 1 0 1 -0.511353 11.3124 13.4635
255 1 1 0 1 -2.61818 10.2833 10.6158
256 1 1 0 1 -5.13503 13.3078 16.3381
257 1 1 0 1 -2.41143 12.1965 15.7188
258 1 1 0 1 -2.81901 12.3319 12.8601
259 1 1 0 1 -0.884072 12.5081 17.6976
260 1 1 0 1 -1.96643 13.7856 13.8003
261 1 1 0 1 -2.31372 9.85836 18.7078
262 1 1 0 1 -3.33155 13.6546 19.1913
263 1 1 0 1 -0.758871 11.7423 19.8241
264 1 1 0 1 -1.32188 14.8118 21.5571
265 1 1 0 1 -1.72652 14.6372 1.36466
266 1 1 0 1 0.739876 16.0662 2.36917
267 1 1 0 1 -3.15851 14.7496 5.01217
268 1 1 0 1 -5.15217 13.3247 1.09059
269 1 1 0 1 -1.27246 10.4427 6.80471
270 1 1 0 1 -3.97451 11.5708 5.81772
271 1 1 0 1 -2.84823 11.4709 7.24127
272 1 1 0 1 -4.15092 11.5184 8.15046
273 1 1 0 1 -4.62198 10.6937 7.36211
274 1 1 0 1 -5.41238 5.29004 8.73927
275 1 1 0 1 -5.57504 7.93337 11.8722
276 1 1 0 1 -2.97952 12.6057 11.6378
277 1 1 0 1 -4.44814 10.3411 11.0683
278 1 1 0 1 -1.40165 14.1472 12.6124
279 1 1 0 1 -3.91858 12.7569 12.014
280 1 1 0 1 -3.72129 13.9669 11.0854
281 1 1 0 1 -3.97497 14.3498 17.4041
282 1 1 0 1 -3.83511 12.5915 10.8339
283 1 1 0 1 -1.43213 16.1647 17.2787
284 1 1 0 1 -1.35185 14.4189 17.5433
285 1 1 0 1 -4.39909 11.4341 16.528
286 1 1 0 1 -2.65635 11.8349 20.2072
287 1 1 0 1 -1.98954 12.9875 3.57031
288 1 1 0 1 0.914795 12.6272 2.85948
289 1 1 0 1 -5.35641 8.34269 5.42788
290 1 1 0 1 -5.77387 11.7884 3.67907
291 1 1 0 1 -4.55617 7.18903 9.61291
292 1 1 0 1 -2.39019 14.9014 8.76295
293 1 1 0 1 0.186322 11.1943 3.71351
294 1 1 0 1 -2.21552 12.8357 7.08975
295 1 1 0 1 -1.32426 11.005 7.76549
296 1 1 0 1 -1.40024 10.1209 12.4538
297 1 1 0 1 -2.16261 11.6714 10.5548
298 1 1 0 1 -5.40672 11.2851 12.941
299 1 1 0 1 -0.593674 14.2534 13.3107
300 1 1 0 1 -1.35309 11.728 16.7942
301 1 1 0 1 -3.11892 15.7644 13.8523
302 1 1 0 1 -2.86867 12.3787 14.8614
303 1 1 0 1 -3.39051 14.199 15.6621
304 1 1 0 1 0.228558 10.739 9.0504
305 1 1 0 1 -3.38812 11.5742 16.838
306 1 1 0 1 -2.3329 15.8528 20.1967
307 1 1 0 1 -1.94342 13.7648 16.4793
308 1 1 0 1 -0.832735 15.2389 25.0504
309 1 1 0 1 -5.15592 11.9563 2.01922
310 1 1 0 1 -6.1162 15.0978 5.50285
311 1 1 0 1 -5.62992 16.5043 1.69072
312 1 1 0 1 -8.87305 12.516 8.73147
313 1 1 0 1 -2.76452 14.1556 6.71394
314 1 1 0 1 -2.70528 10.9403 3.56432
315 1 1 0 1 0.152004 9.30097 7.42307
316 1 1 0 1 -3.76082 12.6677 5.83865
317 1 1 0 1 -4.22566 15.2309 7.69109
318 1 1 0 1 -3.40645 16.6977 9.68387
319 1 1 0 1 -4.23688 15.9717 13.2543
320 1 1 0 1 -0.463365 17.5794 12.6893
321 1 1 0 1 -0.698895 12.3298 13.9661
322 1 1 0 1 -0.263146 9.72144 11.8551
323 1 1 0 1 -3.49014 9.7026 10.014
324 1 1 0 1 -2.82203 14.5583 11.6801
325 1 1 0 1 -2.86298 14.0828 14.6268
326 1 1 0 1 -7.07443 14.6111 19.0317
327 1 1 0 1 -4.55861 13.8738 15.0482
328 1 1 0 1 -5.335 14.323 16.9931
329 1 1 0 1 0.207299 12.6824 20.3797
330 1 1 0 1 -0.205836 14.7031 23.2718
331 1 1 0 1 -3.90996 16.0266 -1.61847
332 1 1 0 1 -0.533371 15.5386 2.07981
333 1 1 0 1 -2.80852 15.4485 3.4067
334 1 1 0 1 -3.50119 16.0266 4.7034
335 1 1 0 1 -2.86596 17.0864 6.49019
336 1 1 0 1 -7.35438 14.4816 6.42976
337 1 1 0 1 -2.55167 12.2041 7.87691
338 1 1 0 1 -3.75053 12.4413 7.67518
339 1 1 0 1 -2.18802 16.3062 7.10741
340 1 1 0 1 -2.50681 13.675 8.48854
341 1 1 0 1 -1.83921 10.0956 8.94877
342 1 1 0 1 -2.00487 18.0915 12.7705
343 1 1 0 1 -4.52765 13.2919 10.7808
344 1 1 0 1 -5.25459 14.657 13.9851
345 1 1 0 1 -4.18086 14.145 14.1665
346 1 1 0 1 1.1983 17.1653 15.4726
347 1 1 0 1 -3.65244 13.0547 18.4038
348 1 1 0 1 -1.80203 15.38 14.963
349 1 1 0 1 -0.725856 16.9254 18.0432
350 1 1 0 1 -2.75798 14.1997 18.4869
351 1 1 0 1 -6.38809 13.5215 19.3796
352 1 1 0 1 -2.34454 14.3489 21.8341
353 1 1 0 1 -3.23698 14.0351 5.84628
354 1 1 0 1 -1.26641 16.5121 3.16613
355 1 1 0 1 -5.06042 15.6452 9.71944
356 1 1 0 1 -5.98923 11.022 5.02127
357 1 1 0 1 -1.82602 15.7611 3.96274
358 1 1 0 1 -1.68571 12.3414 4.5799
359 1 1 0 1 -2.81797 14.9984 5.8894
360 1 1 0 1 -4.19396 14.1953 8.27175
361 1 1 0 1 -7.56223 13.7569 10.8573
362 1 1 0 1 -2.04052 16.2382 9.26231
363 1 1 0 1 -2.93054 16.2897 10.6087
364 1 1 0 1 -3.41074 16.7514 11.7574
365 1 1 0 1 -3.47077 9.13951 8.35496
366 1 1 0 1 -4.03458 15.1938 13.8859
367 1 1 0 1 -3.97557 15.134 11.2458
368 1 1 0 1 -1.76584 15.4393 17.8577
369 1 1 0 1 -7.79575 14.4942 17.1511
370 1 1 0 1 -2.7096 7.72938 8.24384
371 1 1 0 1 -3.27105 16.9771 20.2032
372 1 1 0 1 -4.21746 12.6253 16.055
373 1 1 0 1 -3.0018 13.3415 20.9189
374 1 1 0 1 -1.79582 13.9244 24.7478
375 1 1 0 1 -6.28564 13.7575 1.14475
376 1 1 0 1 -5.02209 10.7992 5.25391
377 1 1 0 1 -4.26969 17.0441 4.02795
378 1 1 0 1 -3.16443 19.817 3.47555
379 1 1 0 1 -3.13733 16.0882 2.73658
380 1 1 0 1 -4.46996 15.5261 6.66904
381 1 1 0 1 -3.32608 17.0305 4.82119
382 1 1 0 1 -7.949 17.2396 8.67943
383 1 1 0 1 -1.47504 18.5666 8.88147
384 1 1 0 1 -3.90583 16.0353 10.7677
385 1 1 0 1 -3.48828 17.706 10.5902
386 1 1 0 1 -2.33501 14.8411 10.5491
387 1 1 0 1 -3.50269 15.8671 12.4443
388 1 1 0 1 -3.44311 17.7169 15.192
389 1 1 0 1 -4.49679 14.339 13.2
390 1 1 0 1 -2.10774 15.158 16.8778
391 1 1 0 1 -2.88537 15.5761 14.9731
392 1 1 0 1 -6.77427 14.9917 14.2768
393 1 1 0 1 -5.75775 10.5658 13.7657
394 1 1 0 1 -5.90743 15.1315 19.637
395 1 1 0 1 -7.11084 14.0592 16.3213
396 1 1 0 1 -2.73833 13.9673 23.7862
397 1 1 0 1 -2.03117 15.6596 -0.306557
398 1 1 0 1 0.201161 20.6463 1.2725
399 1 1 0 1 -2.91495 14.1013 3.01162
400 1 1 0 1 -5.13714 15.311 3.25115
401 1 1 0 1 -1.21725 12.1195 7.33215
402 1 1 0 1 -1.90462 16.8821 5.76481
403 1 1 0 1 -0.349561 11.4935 7.9956
404 1 1 0 1 -4.05774 16.2907 6.01763
405 1 1 0 1 -5.56293 15.7152 7.48595
406 1 1 0 1 -2.10502 19.3625 9.32117
407 1 1 0 1 -4.30925 17.1764 9.75542
408 1 1 0 1 -6.81151 17.3297 11.5185
409 1 1 0 1 -4.38922 13.4103 12.8776
410 1 1 0 1 -4.23421 14.9755 15.13
411 1 1 0 1 -1.48312 16.2074 13.722
412 1 1 0 1 -7.62113 15.2819 12.043
413 1 1 0 1 -3.72598 14.6435 18.8835
414 1 1 0 1 -4.71603 15.6256 17.3583
415 1 1 0 1 -1.4327 17.1837 18.7748
416 1 1 0 1 -0.0282072 14.7411 21.3536
417 1 1 0 1 2.39014 18.1389 23.1168
418 1 1 0 1 0.991553 15.7176 22.7662
419 1 1 0 1 -4.79677 19.6432 3.09781
420 1 1 0 1 -2.55747 21.3633 5.83581
421 1 1 0 1 -2.79962 16.2588 5.67351
422 1 1 0 1 -4.12429 15.1311 4.49382
423 1 1 0 1 -2.0802 19.4664 4.9481
424 1 1 0 1 -2.79697 17.8533 7.79135
425 1 1 0 1 -2.57399 20.2911 5.52373
426 1 1 0 1 -3.88886 17.1924 6.80448
427 1 1 0 1 -1.11117 18.4706 8.03581
428 1 1 0 1 -3.44022 23.3223 8.88735
429 1 1 0 1 -2.74793 21.3975 10.6515
430 1 1 0 1 0.00847571 18.5701 9.8733
431 1 1 0 1 -3.9433 17.2503 13.7964
432 1 1 0 1 0.294957 19.3569 17.1346
433 1 1 0 1 -2.51701 17.1212 12.5214
434 1 1 0 1 -5.01554 16.4744 13.596
435 1 1 0 1 -5.69585 15.1946 18.2587
436 1 1 0 1 -4.69706 20.2507 14.1108
437 1 1 0 1 -3.90247 19.6926 14.896
438 1 1 0 1 -1.41673 18.3389 17.8332
439 1 1 0 1 -4.82326 18.5728 16.2229
440 1 1 0 1 -3.01535 16.4794 23.129
441 1 1 0 1 -3.73266 13.8243 2.1777
442 1 1 0 1 -0.982071 17.7488 2.97796
443 1 1 0 1 -3.74006 18.644 2.77952
444 1 1 0 1 0.185508 23.1555 4.14605
445 1 1 0 1 -3.0151 17.87 2.85555
446 1 1 0 1 -1.95067 11.1695 11.4979
447 1 1 0 1 -3.72277 19.3025 6.67346
448 1 1 0 1 -6.26084 15.0317 8.28063
449 1 1 0 1 -3.96012 19.3299 9.3685
450 1 1 0 1 -4.90377 17.7235 10.7681
451 1 1 0 1 -5.03187 19.4813 8.15891
452 1 1 0 1 -4.90811 19.4856 15.33
453 1 1 0 1 -6.07688 17.646 10.8566
454 1 1 0 1 -3.46443 21.6641 15.7628
455 1 1 0 1 -5.81755 8.31824 13.076
456 1 1 0 1 -5.56665 13.1971 13.2337
457 1 1 0 1 -4.75104 22.0257 15.1603
458 1 1 0 1 -6.98808 18.2641 18.7806
459 1 1 0 1 -2.57797 17.8668 16.104
460 1 1 0 1 -3.96015 13.5995 20.6485
461 1 1 0 1 -2.06059 21.2328 14.3346
462 1 1 0 1 -2.11552 21.2803 22.9489
463 1 1 0 1 -2.55602 23.5733 -1.58026
464 1 1 0 1 -2.2707 17.5124 -0.297173
465 1 1 0 1 -0.0397673 22.5039 5.9038
466 1 1 0 1 -1.60008 22.8979 4.09306
467 1 1 0 1 -5.80191 19.396 6.34365
468 1 1 0 1 -3.76155 20.1651 5.47024
469 1 1 0 1 -2.6376 18.9476 6.7976
470 1 1 0 1 -4.78103 23.6129 5.22976
471 1 1 0 1 -3.37439 18.8879 7.67824
472 1 1 0 1 -2.09721 24.3251 7.68674
473 1 1 0 1 -1.5946 21.7359 13.091
474 1 1 0 1 -5.12028 18.5167 12.6458
475 1 1 0 1 -0.530787 21.0086 15.4966
476 1 1 0 1 -3.74925 21.3539 14.8497
477 1 1 0 1 -1.61943 20.6029 15.3827
478 1 1 0 1 -2.86758 20.5506 16.0506
479 1 1 0 1 0.0511187 22.9324 17.3595
480 1 1 0 1 -1.06273 22.7599 13.1883
481 1 1 0 1 -1.55262 18.2667 19.9344
482 1 1 0 1 -2.36197 22.9904 19.4141
483 1 1 0 1 -0.839636 20.199 19.3933
484 1 1 0 1 -0.727228 21.9761 23.3261
485 1 1 0 1 -3.94121 0.315153 2.30382
486 1 1 0 1 -2.60097 -1.04352 -0.306272
487 1 1 0 1 -1.82151 -2.02955 1.87778
488 1 1 0 1 -0.549818 -0.240785 2.40508
489 1 1 0 1 -0.0490539 2.87815 7.76413
490 1 1 0 1 -3.24716 3.34643 3.93728
491 1 1 0 1 -0.779424 1.44838 9.42193
492 1 1 0 1 -4.32883 -0.173704 8.25234
493 1 1 0 1 -0.993105 -0.0669019 9.72991
494 1 1 0 1 -4.57803 1.39838 6.21431
495 1 1 0 1 -2.96133 0.514871 11.8207
496 1 1 0 1 -0.54255 -0.423517 11.3425
497 1 1 0 1 2.24765 1.76337 10.9137
498 1 1 0 1 -1.76696 0.501196 15.2312
499 1 1 0 1 -2.61449 1.19846 15.8525
500 1 1 0 1 -0.74819 -1.92254 14.0698
501 1 1 0 1 1.08498 -0.593497 13.9909
502 1 1 0 1 -1.30747 -1.68286 17.6689
503 1 1 0 1 -1.37598 0.995397 19.853
504 1 1 0 1 -2.44259 -1.41888 18.6908
505 1 1 0 1 -2.99847 -0.444622 16.7544
506 1 1 0 1 -6.00779 2.13654 22.4815
507 1 1 0 1 -0.788841 2.05567 1.01633
508 1 1 0 1 -1.78459 0.275651 0.689778
509 1 1 0 1 -1.08252 4.54966 -0.70219
510 1 1 0 1 -1.17042 1.07813 1.41896
511 1 1 0 1 1.09028 3.63672 4.16295
512 1 1 0 1 1.43864 6.73823 5.36417
513 1 1 0 1 -0.909015 0.592809 6.70638
514 1 1 0 1 -2.42957 2.29486 5.52097
515 1 1 0 1 -0.0171768 2.80569 6.55572
516 1 1 0 1 -2.78732 2.16845 9.521
517 1 1 0 1 -0.407943 2.43361 9.52951
518 1 1 0 1 0.631373 2.11124 13.0473
519 1 1 0 1 -1.0657 0.226356 14.0985
520 1 1 0 1 -1.314 -0.569609 12.1312
521 1 1 0 1 -0.341913 1.4627 13.3357
522 1 1 0 1 -0.92 1.83161 16.6194
523 1 1 0 1 -0.37371 2.62008 18.5895
524 1 1 0 1 0.0358714 0.535327 18.3313
525 1 1 0 1 -4.04624 2.06601 20.1225
526 1 1 0 1 -1.04546 -2.80797 19.4223
527 1 1 0 1 0.648013 -0.243175 19.7221
528 1 1 0 1 0.921378 1.95363 24.398
529 1 1 0 1 -0.841726 3.38074 1.7332
530 1 1 0 1 -3.52091 -0.345585 -2.58596
531 1 1 0 1 -1.45417 2.35035 1.69895
532 1 1 0 1 -4.49168 1.8828 -0.421954
533 1 1 0 1 0.700158 3.17957 2.44149
534 1 1 0 1 -1.44172 2.88212 2.74701
535 1 1 0 1 1.45468 4.60784 5.04287
536 1 1 0 1 -3.49206 4.60856 6.65425
537 1 1 0 1 -3.32695 2.26842 7.93539
538 1 1 0 1 -5.20348 0.938923 7.43417
539 1 1 0 1 -3.3637 2.42206 13.0276
540 1 1 0 1 -0.368586 1.67832 12.2935
541 1 1 0 1 -1.76366 6.8292 16.0217
542 1 1 0 1 -1.17614 2.02734 13.9006
543 1 1 0 1 -3.69466 3.51203 15.7845
544 1 1 0 1 0.894559 2.67702 17.0923
545 1 1 0 1 -1.32519 2.86868 18.3706
546 1 1 0 1 0.801843 0.231473 16.7953
547 1 1 0 1 -3.58036 2.53948 18.7582
548 1 1 0 1 -3.27767 2.67936 19.8112
549 1 1 0 1 -0.62524 2.70609 21.2886
550 1 1 0 1 1.04108 1.52268 23.0555
551 1 1 0 1 -1.63333 3.84518 2.53434
552 1 1 0 1 -1.54272 5.59237 -0.257051
553 1 1 0 1 -1.19326 4.50938 1.67213
554 1 1 0 1 -0.549298 5.13569 2.39971
555 1 1 0 1 -2.30656 4.80232 4.34979
556 1 1 0 1 -1.75776 1.65055 3.30599
557 1 1 0 1 -0.226761 5.69142 6.82499
558 1 1 0 1 -4.1332 2.8204 8.65312
559 1 1 0 1 -2.06754 2.94331 9.4409
560 1 1 0 1 -2.81162 2.48028 6.8592
561 1 1 0 1 -1.81766 1.18358 14.079
562 1 1 0 1 -3.10266 3.5609 12.103
563 1 1 0 1 -2.90094 4.49917 11.3148
564 1 1 0 1 -3.46186 2.46316 14.1012
565 1 1 0 1 -0.493649 4.02275 16.9978
566 1 1 0 1 1.15868 2.955 14.7661
567 1 1 0 1 2.17578 5.14658 16.6338
568 1 1 0 1 0.393442 4.56873 15.6423
569 1 1 0 1 -0.825188 2.80052 19.7133
570 1 1 0 1 -1.2269 1.56635 20.9431
571 1 1 0 1 2.71407 1.62964 21.3994
572 1 1 0 1 2.8528 2.78512 21.0148
573 1 1 0 1 1.2266 5.04191 0.00406499
574 1 1 0 1 -2.31231 2.81591 4.61421
575 1 1 0 1 -3.88982 3.9042 0.856378
576 1 1 0 1 -1.99351 5.79858 0.756877
577 1 1 0 1 -2.30005 3.90288 3.82777
578 1 1 0 1 -3.6442 6.38528 3.92819
579 1 1 0 1 -3.90173 5.84662 7.00117
580 1 1 0 1 -2.9077 4.5175 7.82004
581 1 1 0 1 -3.88937 8.85875 9.22152
582 1 1 0 1 1.20008 5.08264 8.77961
583 1 1 0 1 -3.33895 3.07237 10.1782
584 1 1 0 1 -3.60379 5.96302 11.9699
585 1 1 0 1 -2.14101 5.93282 15.942
586 1 1 0 1 -3.44796 9.0639 14.5661
587 1 1 0 1 -3.63499 7.94654 12.9032
588 1 1 0 1 -5.47356 3.27425 15.8412
589 1 1 0 1 -4.09177 3.16637 20.9868
590 1 1 0 1 -0.699374 4.54707 22.3312
591 1 1 0 1 -4.87716 4.21947 16.0263
592 1 1 0 1 -0.0730887 3.47571 19.996
593 1 1 0 1 -2.4382 3.20279 18.0966
594 1 1 0 1 -1.76235 2.61721 22.3025
595 1 1 0 1 -1.2112 3.28946 -1.46153
596 1 1 0 1 -3.25606 5.9974 2.99287
597 1 1 0 1 -2.46833 2.66233 3.59016
598 1 1 0 1 1.54057 5.01237 1.71126
599 1 1 0 1 0.234894 4.12571 3.00064
600 1 1 0 1 2.19741 6.55479 4.13922
601 1 1 0 1 -2.62553 7.25802 7.34965
602 1 1 0 1 -0.170207 6.50229 7.8697
603 1 1 0 1 1.85661 3.43442 10.9685
604 1 1 0 1 3.38366 6.26309 9.53044
605 1 1 0 1 1.60736 5.12644 10.5119
606 1 1 0 1 -1.32049 1.88999 12.8844
607 1 1 0 1 0.253694 8.70413 12.175
608 1 1 0 1 -2.39621 4.65974 10.3995
609 1 1 0 1 0.799853 7.69939 13.4107
610 1 1 0 1 0.954859 5.3032 15.0549
611 1 1 0 1 -1.00252 4.5018 16.036
612 1 1 0 1 -1.7496 5.8075 17.4316
613 1 1 0 1 -0.981723 4.28827 20.2026
614 1 1 0 1 -0.252658 3.93651 19.1642
615 1 1 0 1 -3.09719 5.92055 20.4223
616 1 1 0 1 -0.895829 5.45572 18.162
617 1 1 0 1 1.47297 3.93983 -0.0962947
618 1 1 0 1 -7.50702 6.15313 -0.965151
619 1 1 0 1 -4.45147 8.02057 4.09523
620 1 1 0 1 -1.07517 6.50478 6.91672
621 1 1 0 1 -4.05876 3.65983 3.36891
622 1 1 0 1 -4.28735 7.31644 5.8622
623 1 1 0 1 -4.7868 4.86005 2.87751
624 1 1 0 1 -0.00990023 5.29708 5.59646
625 1 1 0 1 -3.33747 7.32062 11.9302
626 1 1 0 1 -4.26658 5.64302 9.14975
627 1 1 0 1 -2.82044 4.88246 14.8786
628 1 1 0 1 0.75272 5.94702 7.17045
629 1 1 0 1 -0.84401 7.71619 12.31
630 1 1 0 1 -0.389716 8.60182 14.6864
631 1 1 0 1 -5.76289 12.2485 11.0271
632 1 1 0 1 -2.07041 5.12312 16.7953
633 1 1 0 1 -5.39391 10.8379 16.8764
634 1 1 0 1 -1.71599 6.52087 18.538
635 1 1 0 1 -3.82422 6.08154 18.3807
636 1 1 0 1 -1.26934 4.7665 17.3515
637 1 1 0 1 -4.42185 4.08014 21.7249
638 1 1 0 1 -0.226768 7.06975 22.7585
639 1 1 0 1 -2.13909 4.10336 1.41879
640 1 1 0 1 -0.292894 6.20456 -0.388107
641 1 1 0 1 -0.948245 5.63819 1.1492
642 1 1 0 1 -2.6602 5.83774 -0.201419
643 1 1 0 1 -0.947411 9.88152 3.28849
644 1 1 0 1 -3.112 6.72228 5.96591
645 1 1 0 1 -1.39611 6.53844 4.79073
646 1 1 0 1 0.217936 8.36677 7.01433
647 1 1 0 1 -0.812722 9.02338 4.79696
648 1 1 0 1 -2.88574 8.44504 10.2244
649 1 1 0 1 -1.06839 6.72082 9.09226
650 1 1 0 1 2.49504 6.5398 12.7992
651 1 1 0 1 0.921809 9.3484 12.6761
652 1 1 0 1 -0.245864 9.5291 16.353
653 1 1 0 1 -2.167 12.6115 13.8099
654 1 1 0 1 -1.20411 7.79738 17.2955
655 1 1 0 1 -2.32965 8.19307 17.4636
656 1 1 0 1 -2.55863 6.72922 19.1937
657 1 1 0 1 -0.623564 5.99244 16.9431
658 1 1 0 1 -1.12382 6.29359 20.9155
659 1 1 0 1 0.649888 4.50587 18.7014
660 1 1 0 1 -3.15181 6.76364 21.047
661 1 1 0 1 -3.14981 7.89101 2.28938
662 1 1 0 1 -0.765447 8.6278 -0.804957
663 1 1 0 1 -0.70166 6.61565 1.60294
664 1 1 0 1 -1.84251 8.73752 5.08738
665 1 1 0 1 -2.84244 5.8623 5.51983
666 1 1 0 1 -4.00547 5.08053 7.91618
667 1 1 0 1 -3.2921 6.58964 4.89024
668 1 1 0 1 -3.28684 6.34814 8.33165
669 1 1 0 1 2.47765 9.1287 6.66073
670 1 1 0 1 0.76087 7.98256 7.85618
671 1 1 0 1 -0.122892 6.32503 8.98429
672 1 1 0 1 -0.99128 9.23 12.9554
673 1 1 0 1 -1.39337 6.89978 12.9118
674 1 1 0 1 -0.35146 9.81264 17.6861
675 1 1 0 1 -2.66358 10.0127 15.9199
676 1 1 0 1 -3.11942 8.19317 16.6702
677 1 1 0 1 -0.723868 13.0286 18.9845
678 1 1 0 1 -0.676439 6.49967 17.8786
679 1 1 0 1 -2.75438 10.5878 19.5416
680 1 1 0 1 -2.19744 8.88556 19.4293
681 1 1 0 1 -0.120289 7.88496 20.8042
682 1 1 0 1 0.521839 7.1098 21.2015
683 1 1 0 1 -2.14387 9.85991 3.01172
684 1 1 0 1 -1.47457 6.80268 2.39816
685 1 1 0 1 -3.00951 12.1911 3.43425
686 1 1 0 1 -1.84403 7.46085 3.73201
687 1 1 0 1 -3.68158 10.9398 2.80144
688 1 1 0 1 -1.27072 11.4759 4.64053
689 1 1 0 1 -0.763963 10.6459 5.04432
690 1 1 0 1 -1.32763 7.46334 8.12333
691 1 1 0 1 0.980337 8.55115 8.99636
692 1 1 0 1 1.27304 10.7291 11.1034
693 1 1 0 1 -2.54895 6.96841 16.7636
694 1 1 0 1 -2.20186 10.3275 13.4557
695 1 1 0 1 0.128042 7.61373 14.4283
696 1 1 0 1 0.633227 10.4461 16.0119
697 1 1 0 1 -1.08818 9.67587 17.0477
698 1 1 0 1 -3.98774 10.0585 15.4023
699 1 1 0 1 -1.3488 9.37303 19.2111
700 1 1 0 1 -3.35533 15.033 16.8626
701 1 1 0 1 -4.78118 11.781 19.0275
702 1 1 0 1 -2.0896 10.9064 18.2943
703 1 1 0 1 0.830271 9.71081 18.5656
704 1 1 0 1 -1.87981 13.5157 21.5317
705 1 1 0 1 -1.28169 8.98843 1.18196
706 1 1 0 1 -4.00468 8.60948 2.66551
707 1 1 0 1 -3.14489 11.8191 1.3194
708 1 1 0 1 -0.133745 10.3502 0.956454
709 1 1 0 1 -1.96777 11.456 2.65743
710 1 1 0 1 -2.32188 11.5918 4.18971
711 1 1 0 1 -0.362932 11.5293 5.32672
712 1 1 0 1 -2.55119 10.7306 6.34093
713 1 1 0 1 -0.662937 11.4534 6.7409
714 1 1 0 1 0.241648 10.702 6.58607
715 1 1 0 1 -2.44648 9.11235 11.8081
716 1 1 0 1 -1.53321 14.3045 14.58
717 1 1 0 1 -0.394982 11.5299 15.8627
718 1 1 0 1 -3.08552 10.287 14.5465
719 1 1 0 1 -1.063 11.2146 18.5723
720 1 1 0 1 -3.61026 10.472 16.5125
721 1 1 0 1 -1.89311 11.189 19.8641
722 1 1 0 1 -0.102552 12.905 17.2871
723 1 1 0 1 -1.71774 10.4258 19.2315
724 1 1 0 1 -1.67686 13.3587 17.94
725 1 1 0 1 -1.12529 12.9222 21.2707
726 1 1 0 1 -3.31129 12.6898 19.5577
727 1 1 0 1 -1.39296 11.5103 0.431435
728 1 1 0 1 -1.78347 8.52909 -0.208369
729 1 1 0 1 -6.07365 10.339 1.5585
730 1 1 0 1 -2.19806 9.40491 0.482778
731 1 1 0 1 -2.16988 9.14932 1.80092
732 1 1 0 1 -3.15897 9.0841 2.94023
733 1 1 0 1 -1.78082 10.3572 3.8889
734 1 1 0 1 -0.962808 8.98068 7.93727
735 1 1 0 1 0.0223939 12.9132 4.6508
736 1 1 0 1 -1.93514 12.0626 6.18268
737 1 1 0 1 -1.55665 10.7166 10.3606
738 1 1 0 1 2.88479 12.7528 11.1358
739 1 1 0 1 -0.327544 10.225 13.0167
740 1 1 0 1 -1.82777 10.9371 17.2518
741 1 1 0 1 -2.33794 11.3731 16.5173
742 1 1 0 1 -6.02919 11.5566 18.1142
743 1 1 0 1 -0.851839 10.6329 17.3164
744 1 1 0 1 -2.17453 10.7393 21.7687
745 1 1 0 1 1.22852 10.6238 18.9863
746 1 1 0 1 -3.00689 11.0899 21.2027
747 1 1 0 1 -0.464441 11.1386 22.2764
748 1 1 0 1 -0.817027 12.8393 20.2123
749 1 1 0 1 -2.81703 12.9872 4.20195
750 1 1 0 1 0.291694 11.6823 2.04787
751 1 1 0 1 -3.18943 12.8864 2.3059
752 1 1 0 1 -2.39095 13.9451 4.05141
753 1 1 0 1 0.389804 12.193 3.74956
754 1 1 0 1 -2.96614 11.6987 2.38568
755 1 1 0 1 -0.858428 12.8419 5.39175
756 1 1 0 1 -1.04472 13.1509 6.35655
757 1 1 0 1 -1.38409 11.0918 9.14607
758 1 1 0 1 -2.61709 9.90346 7.85945
759 1 1 0 1 -3.44416 11.0924 11.1663
760 1 1 0 1 0.251269 10.7807 11.5096
761 1 1 0 1 1.41488 12.1856 14.9268
762 1 1 0 1 0.352256 14.1397 14.6579
763 1 1 0 1 -1.16714 13.6507 15.5865
764 1 1 0 1 0.290774 14.5908 15.8605
765 1 1 0 1 -2.60798 12.9802 18.5601
766 1 1 0 1 -0.461037 13.0951 16.2202
767 1 1 0 1 -1.57124 14.4431 18.9086
768 1 1 0 1 0.385974 11.0866 19.3405
769 1 1 0 1 -0.176902 11.0157 20.9811
770 1 1 0 1 0.330137 13.7711 21.2769
771 1 1 0 1 -0.998222 14.2925 0.506083
772 1 1 0 1 -0.50557 11.9647 2.91361
773 1 1 0 1 -2.0582 12.6193 1.48876
774 1 1 0 1 1.31446 17.1658 4.91952
775 1 1 0 1 -2.19624 14.8394 4.4173
776 1 1 0 1 -3.39377 11.8476 9.63801
777 1 1 0 1 -1.20842 15.6499 5.20308
778 1 1 0 1 -0.811425 12.1497 9.54179
779 1 1 0 1 -1.19826 13.572 11.1956
780 1 1 0 1 -1.31078 12.4122 10.9141
781 1 1 0 1 0.389859 11.754 11.0963
782 1 1 0 1 -1.01718 11.2833 14.4453
783 1 1 0 1 -1.62186 15.1835 13.0143
784 1 1 0 1 -1.02281 13.2512 13.4378
785 1 1 0 1 -1.36202 14.934 16.1744
786 1 1 0 1 -2.46916 15.1622 15.7577
787 1 1 0 1 0.533203 14.9867 17.4328
788 1 1 0 1 -2.0605 14.2114 15.4731
789 1 1 0 1 -0.511697 14.3357 16.484
790 1 1 0 1 0.541437 10.6512 20.3207
791 1 1 0 1 -0.967745 11.8718 21.0721
792 1 1 0 1 -2.04482 12.4846 21.4172
793 1 1 0 1 -5.58666 13.7638 0.177459
794 1 1 0 1 1.70122 15.2139 1.52142
795 1 1 0 1 1.19826 17.1016 2.71528
796 1 1 0 1 -1.13375 14.6128 2.34519
797 1 1 0 1 -2.4847 13.8638 5.15143
798 1 1 0 1 -1.79667 16.5483 4.61865
799 1 1 0 1 -1.94741 14.2671 7.69916
800 1 1 0 1 -0.862759 8.99144 9.24621
801 1 1 0 1 -0.234042 12.8826 10.0287
802 1 1 0 1 -4.11383 16.2791 7.28211
803 1 1 0 1 -0.735864 13.7491 14.4097
804 1 1 0 1 -2.63736 14.905 13.3898
805 1 1 0 1 -0.463319 13.7795 12.121
806 1 1 0 1 0.939284 11.8568 10.2689
807 1 1 0 1 -0.968126 15.1669 13.8387
808 1 1 0 1 -0.184652 16.5914 13.9081