ITEM: TIMESTEP
23000
ITEM: NUMBER OF ATOMS
6752
ITEM: BOX BOUNDS pp pp pp
0.0000000000000000e+00 2.2000000000000000e+01
0.0000000000000000e+00 2.2000000000000000e+01
0.0000000000000000e+00 2.2000000000000000e+01
ITEM: ATOMS id mol type q mass xu yu zu
1 1 1 0 1 -1.25662 -10.3688 4.0615
2 1 1 0 1 -2.08088 5.65991 -1.01327
3 1 1 0 1 -3.12823 -0.271656 3.47677
4 1 1 0 1 -12.3328 -1.70912 6.30864
5 1 1 0 1 2.44892 9.91562 1.68425
6 1 1 0 1 -10.8773 -5.17789 8.27072
7 1 1 0 1 5.8042 9.74259 6.67142
8 1 1 0 1 4.51894 -3.001 12.8326
9 1 1 0 1 -0.5413 2.38732 9.75006
10 1 1 0 1 -7.05336 -2.39835 10.8883
11 1 1 0 1 -1.12678 -0.759423 3.78279
12 1 1 0 1 -6.15632 -3.11166 16.7735
13 1 1 0 1 2.63879 3.57146 11.8428
14 1 1 0 1 -1.62732 13.3698 10.8798
15 1 1 0 1 -8.13003 0.565461 9.072
16 1 1 0 1 -4.53135 -7.66279 14.9727
17 1 1 0 1 -0.848476 -1.7146 15.3866
18 1 1 0 1 -7.94559 -9.18452 19.5823
19 1 1 0 1 -4.67786 4.86756 15.5621
20 1 1 0 1 -6.51895 5.08591 19.0819
21 1 1 0 1 -6.63425 4.78537 14.7737
22 1 1 0 1 -1.4643 9.93742 18.7701
23 1 1 0 1 -10.2123 0.925947 7.16759
24 1 1 0 1 -6.6177 5.21601 -0.156708
25 1 1 0 1 -0.198282 1.97251 -6.4107
26 1 1 0 1 0.331182 -4.66515 6.30573
27 1 1 0 1 -6.13656 -0.502594 11.9381
28 1 1 0 1 -2.07989 4.15182 1.31909
29 1 1 0 1 -2.89539 -1.23029 17.0399
30 1 1 0 1 -2.89693 1.3193 17.3623
31 1 1 0 1 -4.72566 8.04487 8.78703
32 1 1 0 1 -4.40664 -4.90277 2.85279
33 1 1 0 1 -7.59031 -0.423913 9.11871
34 1 1 0 1 -3.68803 3.46236 14.4644
35 1 1 0 1 -0.477953 2.77778 12.9914
36 1 1 0 1 3.92924 0.72862 6.87245
37 1 1 0 1 -2.1541 1.59058 14.7666
38 1 1 0 1 3.02406 1.17905 25.0578
39 1 1 0 1 -0.0119259 6.64031 11.0116
40 1 1 0 1 -3.77759 4.71231 17.5545
41 1 1 0 1 -6.45596 -2.28648 15.4581
42 1 1 0 1 -3.47284 3.25664 26.5879
43 1 1 0 1 1.05093 8.56638 19.4082
44 1 1 0 1 -3.51036 9.94525 17.007
45 1 1 0 1 -9.68347 3.54484 3.88184
46 1 1 0 1 -2.76867 3.53037 8.82878
47 1 1 0 1 -0.959134 -0.714834 -0.850594
48 1 1 0 1 -10.2074 10.2893 4.05813
49 1 1 0 1 -4.14916 4.81906 1.07207
50 1 1 0 1 -4.11977 1.96887 0.354445
51 1 1 0 1 -0.654151 2.89476 1.82586
52 1 1 0 1 -0.0720814 1.91378 13.1898
53 1 1 0 1 -3.79617 -2.2052 3.33045
54 1 1 0 1 -4.8842 -1.19566 18.1861
55 1 1 0 1 -5.23684 1.33996 11.292
56 1 1 0 1 -1.61839 3.59837 9.08731
57 1 1 0 1 -2.91435 11.0497 17.677
58 1 1 0 1 -6.49788 11.5694 14.9657
59 1 1 0 1 -6.25026 3.50518 10.1015
60 1 1 0 1 0.541874 2.19943 22.2456
61 1 1 0 1 -5.0392 8.3924 13.2695
62 1 1 0 1 3.60051 1.29534 23.4401
63 1 1 0 1 -0.139677 8.08532 6.13379
64 1 1 0 1 0.508577 -1.28806 14.9158
65 1 1 0 1 -10.4471 1.4501 17.7269
66 1 1 0 1 -4.79784 7.35406 23.3019
67 1 1 0 1 -3.2826 -4.25378 -2.82676
68 1 1 0 1 -7.73272 4.67608 -7.12063
69 1 1 0 1 -2.93702 6.8858 1.68935
70 1 1 0 1 0.335436 13.1953 3.32601
71 1 1 0 1 2.55138 -0.292919 4.58969
72 1 1 0 1 -14.0316 3.63157 0.53221
73 1 1 0 1 0.240727 3.23469 8.26558
74 1 1 0 1 -4.65584 3.33177 14.174
75 1 1 0 1 -0.609405 2.64372 8.44517
76 1 1 0 1 -2.54447 -1.51528 8.0765
77 1 1 0 1 -6.96989 -4.00749 6.04338
78 1 1 0 1 -1.93521 6.19604 10.0267
79 1 1 0 1 -3.72593 2.8076 13.5995
80 1 1 0 1 1.41428 -1.45317 15.5331
81 1 1 0 1 -2.33479 8.73087 20.1358
82 1 1 0 1 -4.22541 -3.62952 11.6989
83 1 1 0 1 -4.36762 -0.907834 19.3715
84 1 1 0 1 4.96707 3.23362 15.0922
85 1 1 0 1 -7.94241 -2.57441 22.9113
86 1 1 0 1 -4.61578 -1.53451 20.2217
87 1 1 0 1 0.0323937 3.76828 22.5782
88 1 1 0 1 -2.10639 6.64545 21.0444
89 1 1 0 1 -2.99546 10.0828 1.47034
90 1 1 0 1 0.908529 11.1099 8.45188
91 1 1 0 1 -3.55487 -1.42536 7.58536
92 1 1 0 1 -0.78428 8.00424 3.98392
93 1 1 0 1 0.828661 8.47547 5.50026
94 1 1 0 1 -1.49762 -4.49277 2.8031
95 1 1 0 1 -3.32435 8.77078 8.88397
96 1 1 0 1 0.670659 3.24945 5.11592
97 1 1 0 1 -5.48137 11.5818 11.2096
98 1 1 0 1 -2.02401 8.57385 7.34779
99 1 1 0 1 -5.06528 6.78404 7.07857
100 1 1 0 1 0.0381693 1.25903 2.59602
101 1 1 0 1 -6.93241 3.74948 7.33123
102 1 1 0 1 -5.48895 4.52643 11.4281
103 1 1 0 1 -3.50556 9.11088 10.0165
104 1 1 0 1 -4.22899 13.2215 12.955
105 1 1 0 1 -1.80034 4.80656 3.77933
106 1 1 0 1 1.12145 6.25399 21.1542
107 1 1 0 1 -7.34 7.94892 15.5888
108 1 1 0 1 -2.02507 6.11365 14.5219
109 1 1 0 1 -7.74795 2.73343 23.7762
110 1 1 0 1 -7.02677 6.2834 22.6079
111 1 1 0 1 -2.8594 5.18579 5.59396
112 1 1 0 1 -5.88477 8.31422 -2.85957
113 1 1 0 1 -0.837492 8.30229 16.6086
114 1 1 0 1 -0.548603 6.62182 6.2755
115 1 1 0 1 -6.89094 9.88402 1.31802
116 1 1 0 1 -3.13672 13.6618 8.61575
117 1 1 0 1 -5.32441 8.61514 3.94741
118 1 1 0 1 -4.52428 4.14443 6.51313
119 1 1 0 1 -3.07429 6.95073 9.92594
120 1 1 0 1 -2.51172 2.50777 8.47903
121 1 1 0 1 0.739341 1.88396 5.67456
122 1 1 0 1 0.750131 4.09442 6.91018
123 1 1 0 1 -4.74337 4.95108 12.131
124 1 1 0 1 -6.32545 10.0465 13.7789
125 1 1 0 1 -9.77019 7.56241 8.19411
126 1 1 0 1 -5.69189 5.786 18.906
127 1 1 0 1 -1.54605 9.76454 17.03
128 1 1 0 1 -10.011 8.73105 10.8241
129 1 1 0 1 -4.37923 7.50713 24.4726
130 1 1 0 1 -5.24801 7.81645 14.0625
131 1 1 0 1 -9.09244 0.504421 7.73529
132 1 1 0 1 -6.31886 5.14613 28.5045
133 1 1 0 1 0.32818 6.35956 2.60352
134 1 1 0 1 -7.19081 6.51653 10.5412
135 1 1 0 1 -7.98633 1.38164 0.379662
136 1 1 0 1 -1.32264 11.0744 1.62926
137 1 1 0 1 -10.0735 3.62661 9.35776
138 1 1 0 1 -9.29067 8.87304 11.8491
139 1 1 0 1 2.7351 5.14067 2.83864
140 1 1 0 1 -7.0096 7.66843 4.68812
141 1 1 0 1 3.60236 5.69701 -0.133876
142 1 1 0 1 -5.42142 4.56442 9.37426
143 1 1 0 1 -0.627219 1.91104 10.7944
144 1 1 0 1 2.97763 1.50844 8.48836
145 1 1 0 1 -8.56799 6.56839 17.5366
146 1 1 0 1 -8.1724 11.4319 22.2817
147 1 1 0 1 -3.08378 20.4111 16.0588
148 1 1 0 1 -8.61813 14.161 12.7247
149 1 1 0 1 -10.2054 4.26075 17.6547
150 1 1 0 1 -5.57955 9.57526 8.72027
151 1 1 0 1 -6.4205 1.6234 21.8809
152 1 1 0 1 -4.88607 -0.00085202 16.8454
153 1 1 0 1 -1.67016 10.0959 20.7927
154 1 1 0 1 -5.10122 3.86268 27.735
155 1 1 0 1 -3.41936 5.29932 -3.58717
156 1 1 0 1 0.9824 7.95193 -1.79507
157 1 1 0 1 -4.42417 10.5898 3.82257
158 1 1 0 1 -4.61949 12.8798 2.6953
159 1 1 0 1 -3.44862 9.0072 1.17061
160 1 1 0 1 -5.62926 4.29227 6.61541
161 1 1 0 1 -2.19649 13.1836 5.50254
162 1 1 0 1 -3.41284 8.98499 11.4035
163 1 1 0 1 4.25892 10.1229 3.53026
164 1 1 0 1 -9.09736 4.95959 11.6331
165 1 1 0 1 0.686488 2.64094 15.2496
166 1 1 0 1 -3.67 11.2954 18.7035
167 1 1 0 1 -4.35957 14.4162 19.0165
168 1 1 0 1 -10.035 4.47386 23.6436
169 1 1 0 1 -6.5989 14.1786 15.7853
170 1 1 0 1 4.22338 8.6149 23.3837
171 1 1 0 1 -2.5478 14.0205 28.0801
172 1 1 0 1 -1.25268 8.70665 19.4848
173 1 1 0 1 -1.43991 7.40684 18.3538
174 1 1 0 1 6.89428 6.95786 22.1261
175 1 1 0 1 -4.86897 7.28847 19.9214
176 1 1 0 1 -0.21934 2.69795 27.3764
177 1 1 0 1 -5.77301 5.93844 1.69271
178 1 1 0 1 -1.04794 15.3111 10.4476
179 1 1 0 1 -8.56439 13.8899 -0.655534
180 1 1 0 1 -1.09138 15.5542 0.857453
181 1 1 0 1 -6.33137 15.1234 3.19645
182 1 1 0 1 -6.95264 14.6187 6.08852
183 1 1 0 1 -5.81409 11.7737 5.51836
184 1 1 0 1 -5.15518 6.28957 8.22641
185 1 1 0 1 -7.54849 -0.514762 7.98267
186 1 1 0 1 -12.8153 15.3347 8.42607
187 1 1 0 1 -7.60347 15.7459 12.0551
188 1 1 0 1 -0.435037 0.960982 11.7004
189 1 1 0 1 -0.874103 11.824 17.4539
190 1 1 0 1 -6.90135 6.51233 13.7523
191 1 1 0 1 -4.57023 9.91532 21.643
192 1 1 0 1 -3.1827 6.30535 15.3808
193 1 1 0 1 -4.10359 3.58854 19.823
194 1 1 0 1 7.9791 10.6865 18.0749
195 1 1 0 1 -5.04439 6.06997 14.3062
196 1 1 0 1 1.15275 8.31147 21.1671
197 1 1 0 1 -4.43352 6.01425 17.7674
198 1 1 0 1 10.18 8.94044 24.7176
199 1 1 0 1 -0.111122 10.8947 3.43253
200 1 1 0 1 4.51891 9.04633 8.01118
201 1 1 0 1 -4.55097 13.7996 -1.92155
202 1 1 0 1 -0.0916778 3.35302 7.25437
203 1 1 0 1 -9.06902 11.065 8.36343
204 1 1 0 1 -2.29667 7.69922 13.6507
205 1 1 0 1 0.797284 4.8253 1.58577
206 1 1 0 1 2.79052 11.5125 6.19387
207 1 1 0 1 -2.65407 10.3397 2.41849
208 1 1 0 1 -2.66163 4.00947 11.9787
209 1 1 0 1 -2.03796 1.0599 2.33257
210 1 1 0 1 -6.35759 8.82582 7.49223
211 1 1 0 1 -2.52453 8.26429 8.26428
212 1 1 0 1 -9.36659 9.51127 12.7324
213 1 1 0 1 -1.00156 10.3734 25.8411
214 1 1 0 1 -13.933 19.8673 16.9897
215 1 1 0 1 -6.5901 13.0214 15.9419
216 1 1 0 1 -6.94364 9.17698 19.8606
217 1 1 0 1 -9.51633 14.0404 26.9171
218 1 1 0 1 1.29206 8.02367 25.473
219 1 1 0 1 4.6115 11.1027 25.9206
220 1 1 0 1 5.85154 14.4954 22.1719
221 1 1 0 1 9.71622 8.02602 -2.93075
222 1 1 0 1 -7.73178 12.4879 0.243926
223 1 1 0 1 -9.46527 11.7603 0.802217
224 1 1 0 1 -7.29975 10.0651 -3.3969
225 1 1 0 1 -8.40019 17.1752 4.17251
226 1 1 0 1 -14.9302 10.1733 10.1134
227 1 1 0 1 -9.77532 14.6115 5.79399
228 1 1 0 1 -9.85035 17.3345 0.577864
229 1 1 0 1 0.819994 10.2924 7.80124
230 1 1 0 1 -2.60546 15.4403 7.76517
231 1 1 0 1 -6.5564 10.1317 11.7946
232 1 1 0 1 0.535974 2.75627 13.2165
233 1 1 0 1 -0.471485 14.7613 15.7927
234 1 1 0 1 -11.9614 10.5952 10.4835
235 1 1 0 1 -4.38719 11.8153 17.0877
236 1 1 0 1 -8.51805 13.9365 14.2952
237 1 1 0 1 -11.1634 14.8315 16.5018
238 1 1 0 1 -7.4849 10.6007 13.6635
239 1 1 0 1 -5.16949 9.52062 15.958
240 1 1 0 1 -5.40754 13.0468 12.4267
241 1 1 0 1 -3.94584 6.28422 19.9583
242 1 1 0 1 -4.61534 1.33311 21.3567
243 1 1 0 1 -2.77148 11.6753 0.121733
244 1 1 0 1 -4.06072 10.0542 -1.69231
245 1 1 0 1 -5.31721 16.1131 1.87424
246 1 1 0 1 -0.61102 10.9658 4.72413
247 1 1 0 1 -6.55357 10.8272 5.11376
248 1 1 0 1 -2.92984 -3.29568 6.94719
249 1 1 0 1 -9.86822 10.9413 7.68722
250 1 1 0 1 -2.32076 5.46766 4.53715
251 1 1 0 1 -6.00804 7.672 4.75907
252 1 1 0 1 -0.763176 1.50371 6.86967
253 1 1 0 1 1.48738 -1.21283 17.765
254 1 1 0 1 -0.43407 11.3711 16.5357
255 1 1 0 1 -7.03446 3.14552 9.39175
256 1 1 0 1 -10.4391 19.2338 12.3109
257 1 1 0 1 3.54113 16.7046 18.8239
258 1 1 0 1 1.26566 13.4069 17.5909
259 1 1 0 1 -7.57408 11.3723 21.1095
260 1 1 0 1 -1.94053 13.4806 17.6009
261 1 1 0 1 -2.8761 7.55228 20.8743
262 1 1 0 1 -3.06739 9.4813 20.0951
263 1 1 0 1 1.69253 15.1356 21.6787
264 1 1 0 1 -0.0512666 16.2435 22.836
265 1 1 0 1 -4.40341 12.2576 -1.08747
266 1 1 0 1 7.87463 17.1595 3.18024
267 1 1 0 1 0.0560418 16.5112 8.14104
268 1 1 0 1 -1.74707 6.13072 -2.06189
269 1 1 0 1 -1.09287 10.4985 11.641
270 1 1 0 1 -0.69458 15.4862 -1.31183
271 1 1 0 1 -6.90421 5.42683 8.89529
272 1 1 0 1 -6.35739 8.80533 14.4816
273 1 1 0 1 -3.12364 13.0658 4.97445
274 1 1 0 1 -12.7567 6.89752 7.88366
275 1 1 0 1 -7.59573 2.81714 10.2122
276 1 1 0 1 -2.04012 12.8012 10.1556
277 1 1 0 1 -5.2919 9.46471 13.7513
278 1 1 0 1 -1.76047 16.2706 16.3435
279 1 1 0 1 -2.30724 17.4197 12.0867
280 1 1 0 1 -6.81252 13.5839 10.2296
281 1 1 0 1 1.25075 11.3559 29.2075
282 1 1 0 1 -3.10267 13.1662 10.4357
283 1 1 0 1 -1.76988 14.194 15.4057
284 1 1 0 1 -7.69045 13.7072 14.8331
285 1 1 0 1 -5.58086 2.60103 16.642
286 1 1 0 1 -1.04586 10.474 19.8844
287 1 1 0 1 -7.83792 21.8685 6.94019
288 1 1 0 1 -2.99158 14.3404 -1.00291
289 1 1 0 1 -8.27594 3.0467 5.53893
290 1 1 0 1 -3.12673 11.3538 6.36703
291 1 1 0 1 -8.50193 -0.183146 9.9303
292 1 1 0 1 -5.67717 13.2577 10.127
293 1 1 0 1 -0.745652 7.5387 8.0017
294 1 1 0 1 -0.825571 16.6514 7.18417
295 1 1 0 1 -4.89777 7.25395 10.3591
296 1 1 0 1 1.38765 12.651 14.4175
297 1 1 0 1 -6.80786 11.3592 7.3173
298 1 1 0 1 -8.56867 3.50674 17.2673
299 1 1 0 1 1.28079 17.3845 12.9612
300 1 1 0 1 2.12911 19.5745 20.6289
301 1 1 0 1 -4.26766 15.4017 18.7149
302 1 1 0 1 -4.76409 15.1305 16.4527
303 1 1 0 1 -10.2706 18.1188 12.4975
304 1 1 0 1 -0.449842 9.28197 11.3211
305 1 1 0 1 8.37445 11.3749 20.6925
306 1 1 0 1 -2.24824 12.594 19.9178
307 1 1 0 1 2.38085 17.1605 20.5113
308 1 1 0 1 3.42214 27.5239 25.6298
309 1 1 0 1 1.36641 13.7299 4.00454
310 1 1 0 1 4.17849 13.8622 5.88311
311 1 1 0 1 -11.0318 13.1242 -3.98846
312 1 1 0 1 -8.00619 5.2174 4.09329
313 1 1 0 1 -10.2336 14 1.92461
314 1 1 0 1 -0.739772 11.1323 2.46647
315 1 1 0 1 2.63359 9.1768 7.64321
316 1 1 0 1 -9.60931 18.1045 6.35407
317 1 1 0 1 -4.37974 14.4032 11.2805
318 1 1 0 1 -3.81259 16.8425 11.1587
319 1 1 0 1 -4.12579 12.4462 9.76316
320 1 1 0 1 2.62123 19.2525 6.30475
321 1 1 0 1 -6.05518 14.7643 14.9917
322 1 1 0 1 -0.13248 10.5187 18.8495
323 1 1 0 1 -2.80325 16.7477 10.3633
324 1 1 0 1 -1.10622 13.593 6.44413
325 1 1 0 1 -0.0277473 10.8563 7.41133
326 1 1 0 1 -5.26623 15.7819 18.3627
327 1 1 0 1 -8.07337 12.9155 17.5682
328 1 1 0 1 0.484604 15.7604 21.8829
329 1 1 0 1 0.402143 11.992 24.9281
330 1 1 0 1 6.24871 14.4489 21.115
331 1 1 0 1 -4.04671 13.1493 8.9432
332 1 1 0 1 -3.46161 19.0748 4.25126
333 1 1 0 1 -1.19084 8.62999 6.79308
334 1 1 0 1 -3.07542 16.588 2.5652
335 1 1 0 1 -2.26335 12.0782 11.0503
336 1 1 0 1 -8.39411 12.4104 4.03639
337 1 1 0 1 -2.76648 12.049 5.69062
338 1 1 0 1 -1.592 9.91155 9.24116
339 1 1 0 1 -11.4884 11.8933 5.55953
340 1 1 0 1 -2.35625 10.2581 10.0437
341 1 1 0 1 -4.75596 8.45905 5.95752
342 1 1 0 1 -2.31261 17.4682 11.0259
343 1 1 0 1 -2.14894 13.2642 8.88716
344 1 1 0 1 -8.45046 8.62059 12.484
345 1 1 0 1 -6.92122 20.2108 12.7707
346 1 1 0 1 0.893833 19.0581 19.3887
347 1 1 0 1 -1.65575 19.9252 18.3661
348 1 1 0 1 -3.66066 11.9682 19.9966
349 1 1 0 1 -0.865434 19.0527 18.3313
350 1 1 0 1 -1.73127 19.2987 17.2184
351 1 1 0 1 -9.25675 20.3428 18.9022
352 1 1 0 1 -1.83647 17.9849 29.9407
353 1 1 0 1 -8.78844 19.1525 -1.11367
354 1 1 0 1 2.38888 18.7196 2.19074
355 1 1 0 1 -6.39183 8.2922 6.42442
356 1 1 0 1 -6.99191 9.83905 5.01942
357 1 1 0 1 0.644011 14.6955 1.81395
358 1 1 0 1 -3.26792 14.9668 7.08963
359 1 1 0 1 -9.44131 13.5981 12.3536
360 1 1 0 1 1.18889 13.2058 6.18439
361 1 1 0 1 -0.551591 19.6976 9.45138
362 1 1 0 1 -1.28779 11.8089 10.7064
363 1 1 0 1 0.681026 11.6064 9.55193
364 1 1 0 1 3.23727 10.9901 8.1859
365 1 1 0 1 -2.16788 3.46622 7.59458
366 1 1 0 1 -6.16623 15.6282 10.321
367 1 1 0 1 -6.31965e-05 10.3753 13.7338
368 1 1 0 1 -3.80925 19.5973 17.5044
369 1 1 0 1 -3.7959 13.7505 11.9383
370 1 1 0 1 -3.51407 5.54809 8.85117
371 1 1 0 1 -6.77786 19.1313 25.7476
372 1 1 0 1 -4.12491 14.3898 21.1288
373 1 1 0 1 -4.38575 12.9775 16.0634
374 1 1 0 1 -2.53729 14.0305 29.2416
375 1 1 0 1 -7.12608 4.70211 7.36177
376 1 1 0 1 -7.45434 16.1306 0.336656
377 1 1 0 1 -10.2093 13.1533 0.762029
378 1 1 0 1 -9.26517 13.597 5.9392
379 1 1 0 1 -0.54735 15.5179 -4.29288
380 1 1 0 1 -4.02938 13.4128 4.66636
381 1 1 0 1 -7.09937 16.1357 6.10667
382 1 1 0 1 -12.5777 17.6465 15.3453
383 1 1 0 1 -2.34861 18.4861 12.147
384 1 1 0 1 1.99133 10.1936 14.6834
385 1 1 0 1 -5.8175 15.3932 8.12431
386 1 1 0 1 -3.06063 11.4782 11.326
387 1 1 0 1 -4.33147 11.4929 16.0827
388 1 1 0 1 -4.69626 17.0271 18.3577
389 1 1 0 1 -4.42288 18.3061 16.7108
390 1 1 0 1 -3.66212 14.6943 17.8399
391 1 1 0 1 -3.79317 22.9489 20.7343
392 1 1 0 1 -8.14069 16.6351 6.42601
393 1 1 0 1 -3.65446 11.6004 12.5821
394 1 1 0 1 -3.82823 18.4084 21.7424
395 1 1 0 1 -12.0757 11.2086 13.141
396 1 1 0 1 0.535595 10.3302 26.3642
397 1 1 0 1 -2.513 17.3496 1.72574
398 1 1 0 1 -2.42974 25.4473 0.517405
399 1 1 0 1 -2.58483 15.1207 2.18882
400 1 1 0 1 -6.51848 10.8732 6.16875
401 1 1 0 1 -0.217779 12.7294 13.2349
402 1 1 0 1 -4.69495 12.3484 12.4991
403 1 1 0 1 5.46571 13.6741 12.0495
404 1 1 0 1 -5.30622 26.136 4.45974
405 1 1 0 1 -11.6532 15.1189 8.65471
406 1 1 0 1 -8.14186 18.0729 5.9513
407 1 1 0 1 -3.54821 16.23 4.26711
408 1 1 0 1 -9.47877 18.7164 11.4931
409 1 1 0 1 -9.44385 10.6711 15.6923
410 1 1 0 1 -6.57165 4.15925 9.11535
411 1 1 0 1 4.84692 16.8322 9.14994
412 1 1 0 1 -9.409 14.8138 3.57756
413 1 1 0 1 -8.41567 13.9981 15.9079
414 1 1 0 1 -7.28513 7.84711 19.2949
415 1 1 0 1 -1.40597 16.1715 27.1513
416 1 1 0 1 -4.76793 14.826 29.0367
417 1 1 0 1 0.980124 21.5927 23.3452
418 1 1 0 1 1.42546 16.3687 26.5764
419 1 1 0 1 -7.29018 16.6498 4.17497
420 1 1 0 1 -1.21212 23.6292 15.3417
421 1 1 0 1 -6.49053 17.1818 4.63853
422 1 1 0 1 -3.47761 4.10352 6.02863
423 1 1 0 1 -2.43618 27.5621 8.235
424 1 1 0 1 -1.44298 14.8886 12.2071
425 1 1 0 1 -1.64775 13.5894 3.68666
426 1 1 0 1 -6.12807 22.9717 -7.29978
427 1 1 0 1 -4.26368 21.3568 8.22817
428 1 1 0 1 2.54405 15.5444 2.11401
429 1 1 0 1 -7.35436 24.3153 5.0735
430 1 1 0 1 -1.92778 16.071 7.13373
431 1 1 0 1 -8.10378 15.002 14.1417
432 1 1 0 1 0.185624 26.9216 9.57216
433 1 1 0 1 -5.14149 20.4693 15.1379
434 1 1 0 1 -4.43502 4.25921 14.4876
435 1 1 0 1 -4.36235 11.6075 22.2432
436 1 1 0 1 -9.18092 15.1221 13.1301
437 1 1 0 1 -5.64981 21.2923 17.2754
438 1 1 0 1 -5.27334 16.5931 19.2739
439 1 1 0 1 -1.93004 22.9055 20.74
440 1 1 0 1 -3.53757 12.3434 21.7059
441 1 1 0 1 -4.15445 16.9871 -2.66813
442 1 1 0 1 -4.86075 21.4907 4.62073
443 1 1 0 1 -3.47255 15.7607 -2.59133
444 1 1 0 1 -1.83036 24.6605 -0.0921901
445 1 1 0 1 -9.21745 16.4779 5.01771
446 1 1 0 1 2.45548 6.52519 10.3023
447 1 1 0 1 -1.38546 9.52757 7.27526
448 1 1 0 1 -7.7524 17.3652 10.523
449 1 1 0 1 -1.9733 19.1223 11.3611
450 1 1 0 1 -4.81505 10.9776 20.3615
451 1 1 0 1 -10.2568 15.4664 12.8727
452 1 1 0 1 -7.324 17.9086 20.673
453 1 1 0 1 -6.09717 17.4847 16.9524
454 1 1 0 1 1.93366 24.4846 15.2636
455 1 1 0 1 -2.89429 4.56695 4.69557
456 1 1 0 1 -4.9623 17.6294 13.0985
457 1 1 0 1 -6.0604 22.1898 12.8555
458 1 1 0 1 -12.3153 16.1564 14.0203
459 1 1 0 1 -5.89746 15.3501 16.1861
460 1 1 0 1 -2.67622 13.6996 19.5073
461 1 1 0 1 0.168605 20.3551 13.1449
462 1 1 0 1 6.01621 25.3779 21.9535
463 1 1 0 1 0.351724 20.9167 -4.09778
464 1 1 0 1 -1.77849 21.5276 8.40653
465 1 1 0 1 9.0102 25.0325 1.28126
466 1 1 0 1 2.19362 30.2728 2.68042
467 1 1 0 1 -6.78992 19.7343 9.86576
468 1 1 0 1 -3.11067 21.0746 4.98593
469 1 1 0 1 -1.04563 16.7131 12.739
470 1 1 0 1 -1.13717 20.1605 10.4361
471 1 1 0 1 -3.70781 7.13933 5.20309
472 1 1 0 1 3.40492 30.6433 13.7905
473 1 1 0 1 -8.36688 20.1178 10.9581
474 1 1 0 1 2.58618 16.769 11.3207
475 1 1 0 1 0.712373 18.634 17.7916
476 1 1 0 1 2.57596 25.744 19.0763
477 1 1 0 1 1.03514 20.4536 13.9065
478 1 1 0 1 4.34656 23.3905 15.5404
479 1 1 0 1 -6.48144 29.687 11.9849
480 1 1 0 1 2.08974 21.7544 20.1842
481 1 1 0 1 -2.08967 18.844 15.6571
482 1 1 0 1 -4.00842 30.8994 19.0637
483 1 1 0 1 2.01464 17.3802 28.3207
484 1 1 0 1 -3.05649 20.0323 23.1443
485 1 1 0 1 -2.66905 -9.65663 1.67071
486 1 1 0 1 -3.34904 7.35735 -6.55707
487 1 1 0 1 -0.786976 3.29932 -0.00893074
488 1 1 0 1 -2.32964 0.350195 1.51664
489 1 1 0 1 0.444072 0.120834 -4.84501
490 1 1 0 1 -9.02149 -1.36423 5.13962
491 1 1 0 1 -6.23347 3.20673 4.45323
492 1 1 0 1 -1.44058 -10.9256 13.5095
493 1 1 0 1 0.487779 -2.63101 13.6569
494 1 1 0 1 -6.73732 0.580464 4.8169
495 1 1 0 1 -8.04788 -0.211777 14.4503
496 1 1 0 1 -0.386542 6.9963 19.6974
497 1 1 0 1 -1.7165 -6.83975 15.9284
498 1 1 0 1 0.905314 5.68765 13.9646
499 1 1 0 1 -0.804618 7.59554 11.0838
500 1 1 0 1 -6.00197 -3.45965 12.8962
501 1 1 0 1 -0.827489 -0.295849 8.28958
502 1 1 0 1 0.635217 -7.81522 17.1932
503 1 1 0 1 -2.73642 6.68026 14.2516
504 1 1 0 1 -0.137681 -0.934082 10.3518
505 1 1 0 1 -3.98608 -1.74327 15.0537
506 1 1 0 1 -2.75291 6.17825 17.9011
507 1 1 0 1 -2.22932 5.36321 -3.01401
508 1 1 0 1 -2.36478 4.27587 2.32187
509 1 1 0 1 -4.95114 4.31391 2.90287
510 1 1 0 1 -6.24893 -4.36424 1.00891
511 1 1 0 1 5.0285 0.507796 6.5006
512 1 1 0 1 -2.88677 12.3959 6.81401
513 1 1 0 1 -2.99114 -3.50289 8.04181
514 1 1 0 1 -2.6624 -0.862466 1.98451
515 1 1 0 1 8.19054 8.10129 3.16064
516 1 1 0 1 -6.65972 5.93072 9.94416
517 1 1 0 1 -3.01624 -0.527721 7.97535
518 1 1 0 1 -0.512638 3.58154 3.67688
519 1 1 0 1 4.20204 1.13926 18.9135
520 1 1 0 1 1.41104 -5.43576 8.68093
521 1 1 0 1 -2.52112 5.2536 14.9801
522 1 1 0 1 -6.30662 9.28587 10.4
523 1 1 0 1 1.31845 0.727913 16.1464
524 1 1 0 1 -0.605867 3.04023 15.6256
525 1 1 0 1 -1.02609 1.23437 24.4744
526 1 1 0 1 0.924902 -3.93878 24.6042
527 1 1 0 1 -1.73988 8.98911 20.9728
528 1 1 0 1 3.79073 2.84803 24.4668
529 1 1 0 1 10.02 11.1784 7.32184
530 1 1 0 1 2.08448 -3.19881 -4.06159
531 1 1 0 1 4.8984 11.6832 -3.30751
532 1 1 0 1 -0.692268 -7.28819 4.4556
533 1 1 0 1 -4.34459 6.93551 -4.675
534 1 1 0 1 -1.07218 0.770616 4.63579
535 1 1 0 1 3.08422 7.11694 0.426059
536 1 1 0 1 -3.95934 11.1613 1.17431
537 1 1 0 1 1.38094 2.50916 8.32014
538 1 1 0 1 -2.06629 -2.27009 14.0062
539 1 1 0 1 -0.200039 5.60079 11.3896
540 1 1 0 1 1.86558 7.03821 9.40503
541 1 1 0 1 -5.56015 9.79643 11.2463
542 1 1 0 1 -5.01431 9.65819 12.1925
543 1 1 0 1 -4.47437 7.67898 6.5696
544 1 1 0 1 -1.79358 7.32668 7.52679
545 1 1 0 1 1.42241 8.94382 13.2682
546 1 1 0 1 -2.67419 -2.84348 13.3106
547 1 1 0 1 -0.989156 -0.609102 20.0464
548 1 1 0 1 -1.8042 5.96545 28.4054
549 1 1 0 1 1.09985 4.35848 28.0178
550 1 1 0 1 -4.33867 9.17129 22.5314
551 1 1 0 1 -2.11478 7.39389 -4.34311
552 1 1 0 1 -4.9568 4.51516 -5.33242
553 1 1 0 1 -0.681249 8.3107 1.56599
554 1 1 0 1 2.2893 5.53966 -1.8759
555 1 1 0 1 -1.86734 5.09719 -4.11953
556 1 1 0 1 -1.74063 1.26952 3.45372
557 1 1 0 1 1.60937 10.5321 0.594412
558 1 1 0 1 1.04402 3.34152 6.29171
559 1 1 0 1 -0.721703 -2.49771 11.4777
560 1 1 0 1 -3.19488 -3.06658 1.65091
561 1 1 0 1 0.820492 4.56807 15.9383
562 1 1 0 1 4.12055 6.22649 20.8319
563 1 1 0 1 -0.790736 2.69988 18.0511
564 1 1 0 1 -4.79985 -4.97458 8.02683
565 1 1 0 1 6.75625 6.5965 19.0235
566 1 1 0 1 1.50678 4.35293 12.4492
567 1 1 0 1 -4.48914 3.73008 17.6016
568 1 1 0 1 4.53939 7.15931 14.8194
569 1 1 0 1 0.421088 5.7823 17.8818
570 1 1 0 1 -2.76724 6.8746 25.5612
571 1 1 0 1 5.3903 7.81514 21.3285
572 1 1 0 1 0.327068 4.99206 22.5827
573 1 1 0 1 -0.155378 6.90029 -3.37825
574 1 1 0 1 -2.29327 3.06871 4.53912
575 1 1 0 1 -6.68152 4.3873 -6.27481
576 1 1 0 1 -0.798907 7.21176 -0.640798
577 1 1 0 1 -4.92051 1.14113 3.97968
578 1 1 0 1 -3.96825 10.9023 13.3806
579 1 1 0 1 -3.51828 3.12363 3.13126
580 1 1 0 1 -2.91344 0.283695 11.7508
581 1 1 0 1 -2.55634 9.71004 11.6114
582 1 1 0 1 -0.251557 4.03114 10.157
583 1 1 0 1 -6.57433 11.7897 11.0539
584 1 1 0 1 -4.37935 6.82752 15.6811
585 1 1 0 1 -6.82835 0.851928 13.1852
586 1 1 0 1 -1.06067 14.6585 17.1614
587 1 1 0 1 -3.92838 15.5933 14.6003
588 1 1 0 1 -3.19624 0.826824 18.4506
589 1 1 0 1 -7.26876 4.83815 16.5696
590 1 1 0 1 -5.05958 4.46056 13.3774
591 1 1 0 1 -4.78704 5.22597 10.0961
592 1 1 0 1 -2.2837 0.28214 18.3188
593 1 1 0 1 -0.87374 5.96135 16.3457
594 1 1 0 1 -8.21312 -1.47964 19.3179
595 1 1 0 1 0.524177 2.14351 -2.43679
596 1 1 0 1 -0.24663 8.63042 5.03938
597 1 1 0 1 -6.81533 1.65936 6.00483
598 1 1 0 1 1.75089 7.72323 1.36452
599 1 1 0 1 0.394707 10.922 1.24311
600 1 1 0 1 0.720483 6.32957 6.09208
601 1 1 0 1 -6.58096 7.17686 5.60265
602 1 1 0 1 -1.04999 -2.95696 4.5042
603 1 1 0 1 0.515399 -6.86636 15.0119
604 1 1 0 1 10.0096 8.92143 15.1794
605 1 1 0 1 -2.40081 7.56738 9.29175
606 1 1 0 1 -7.42733 -2.21022 11.9463
607 1 1 0 1 -6.41796 4.78959 8.21519
608 1 1 0 1 0.489639 -4.22241 8.08424
609 1 1 0 1 6.51987 10.5177 14.0927
610 1 1 0 1 0.355035 7.33789 10.3273
611 1 1 0 1 -0.804633 6.64768 10.3073
612 1 1 0 1 2.30603 2.98031 24.2912
613 1 1 0 1 0.582997 3.31466 15.9578
614 1 1 0 1 -2.86274 10.0771 25.4528
615 1 1 0 1 -10.0516 5.57368 18.2606
616 1 1 0 1 -4.89757 9.38906 17.0579
617 1 1 0 1 0.899207 1.21022 -2.37321
618 1 1 0 1 -8.62585 5.02595 2.46725
619 1 1 0 1 1.52039 18.9354 4.63193
620 1 1 0 1 1.39376 9.61801 7.0302
621 1 1 0 1 -1.35573 6.20584 5.12602
622 1 1 0 1 -8.13002 1.65048 1.46718
623 1 1 0 1 -2.61005 7.98417 3.70805
624 1 1 0 1 -4.48704 3.74872 3.71343
625 1 1 0 1 -1.92333 4.17466 4.87186
626 1 1 0 1 0.0366373 8.28182 11.6101
627 1 1 0 1 -8.47076 -3.62479 17.4072
628 1 1 0 1 6.47033 -0.922164 7.2816
629 1 1 0 1 1.6359 12.2731 20.0618
630 1 1 0 1 3.91795 11.2878 17.2584
631 1 1 0 1 0.57248 9.61103 12.9867
632 1 1 0 1 4.28775 7.98182 16.5201
633 1 1 0 1 -10.0032 9.51325 14.7353
634 1 1 0 1 -0.889765 5.49541 14.4056
635 1 1 0 1 1.06771 2.09223 18.5841
636 1 1 0 1 2.00775 2.88738 17.2468
637 1 1 0 1 -6.773 5.19101 20.3844
638 1 1 0 1 -1.91989 6.26762 23.2714
639 1 1 0 1 -2.81705 -1.49132 6.62703
640 1 1 0 1 -3.34829 13.4943 6.55417
641 1 1 0 1 9.8678 6.88949 2.50312
642 1 1 0 1 -1.26961 13.8304 7.57982
643 1 1 0 1 0.763545 12.3885 8.99322
644 1 1 0 1 -4.83843 6.69762 0.548364
645 1 1 0 1 -3.0494 4.03593 7.61344
646 1 1 0 1 0.809984 6.00914 7.03237
647 1 1 0 1 -4.89972 11.4747 -3.31603
648 1 1 0 1 -3.08869 13.1569 13.1741
649 1 1 0 1 -3.46725 8.21753 7.01946
650 1 1 0 1 4.9949 3.23484 13.116
651 1 1 0 1 -0.207473 8.76473 8.33405
652 1 1 0 1 -2.39027 15.2992 18.3342
653 1 1 0 1 -2.25143 17.6913 13.3221
654 1 1 0 1 0.202193 8.6814 19.8208
655 1 1 0 1 -0.727237 5.86768 4.34101
656 1 1 0 1 -3.92603 2.51042 14.6099
657 1 1 0 1 2.30451 7.4837 18.7082
658 1 1 0 1 2.42173 11.0938 25.9879
659 1 1 0 1 -3.38079 5.62195 14.4469
660 1 1 0 1 2.37765 6.08015 19.3027
661 1 1 0 1 -1.11844 9.26352 1.21949
662 1 1 0 1 2.52591 7.04523 -1.79149
663 1 1 0 1 -3.25279 7.57482 2.53216
664 1 1 0 1 -2.26868 10.6098 6.02551
665 1 1 0 1 -8.4458 0.00337977 5.90033
666 1 1 0 1 7.67078 9.80455 11.7646
667 1 1 0 1 -5.42685 6.52244 -2.46419
668 1 1 0 1 -7.64759 4.15399 1.44179
669 1 1 0 1 5.30299 4.824 1.58279
670 1 1 0 1 -4.07987 6.44187 7.86946
671 1 1 0 1 2.94966 2.22622 2.77704
672 1 1 0 1 0.535579 17.8165 16.8331
673 1 1 0 1 -6.40457 16.8526 14.3338
674 1 1 0 1 -0.616434 13.4882 17.3119
675 1 1 0 1 -1.28705 11.6563 19.7844
676 1 1 0 1 -4.97762 1.55914 16.4904
677 1 1 0 1 -3.87816 7.56514 18.6798
678 1 1 0 1 7.31953 3.17934 19.6444
679 1 1 0 1 -8.87821 5.68977 14.6581
680 1 1 0 1 -1.13221 5.94389 15.3389
681 1 1 0 1 -2.28449 9.48014 21.7284
682 1 1 0 1 4.43223 12.9213 21.5399
683 1 1 0 1 -3.96156 12.26 4.70554
684 1 1 0 1 -2.32228 4.50243 0.405276
685 1 1 0 1 0.566694 12.4074 5.31621
686 1 1 0 1 -3.97732 5.25632 6.15444
687 1 1 0 1 0.25659 14.2333 4.55994
688 1 1 0 1 -0.915678 12.532 11.3111
689 1 1 0 1 -1.55019 3.50893 6.76089
690 1 1 0 1 1.36346 6.28646 15.1556
691 1 1 0 1 0.0427566 3.10343 2.85701
692 1 1 0 1 -3.5295 9.19612 7.85445
693 1 1 0 1 -0.75975 5.48043 18.4277
694 1 1 0 1 -7.71927 12.3173 13.8469
695 1 1 0 1 -1.20178 11.4872 14.593
696 1 1 0 1 -4.44539 5.52287 22.1928
697 1 1 0 1 -0.617166 7.86482 19.0834
698 1 1 0 1 -5.49876 8.51876 16.5841
699 1 1 0 1 4.10056 7.31669 21.7958
700 1 1 0 1 2.61002 13.7278 17.3406
701 1 1 0 1 -3.61409 11.1989 16.8095
702 1 1 0 1 -4.96585 6.03866 20.4369
703 1 1 0 1 -1.93476 13.1016 20.9102
704 1 1 0 1 3.74626 20.6456 19.6301
705 1 1 0 1 -1.81045 8.76365 3.18705
706 1 1 0 1 -2.76491 8.09265 -3.73783
707 1 1 0 1 -0.724072 27.4516 0.0898209
708 1 1 0 1 6.33342 9.14322 2.27558
709 1 1 0 1 -7.80028 11.3898 2.07066
710 1 1 0 1 -2.2051 11.7752 -0.984341
711 1 1 0 1 -5.65263 5.99885 7.12672
712 1 1 0 1 -2.82406 13.6016 14.237
713 1 1 0 1 -2.76002 12.6394 8.3734
714 1 1 0 1 -1.56397 12.1398 2.198
715 1 1 0 1 -4.04955 8.05544 13.2704
716 1 1 0 1 -3.76844 12.9554 17.0869
717 1 1 0 1 -2.28456 15.046 17.0959
718 1 1 0 1 0.251524 9.71482 14.5713
719 1 1 0 1 -5.08097 8.18996 15.2185
720 1 1 0 1 -4.31796 13.8167 23.6216
721 1 1 0 1 -11.3323 13.1514 13.9241
722 1 1 0 1 5.39563 20.1277 27.4687
723 1 1 0 1 -1.96789 11.0288 17.9705
724 1 1 0 1 -0.540519 15.1024 21.9149
725 1 1 0 1 0.21442 15.4041 26.2068
726 1 1 0 1 -8.53779 17.4825 21.4872
727 1 1 0 1 1.01873 13.5799 1.63754
728 1 1 0 1 -3.57565 16.0188 -0.502453
729 1 1 0 1 -4.16227 5.63791 -5.86574
730 1 1 0 1 -2.12071 18.496 6.00547
731 1 1 0 1 -0.348761 16.988 5.58275
732 1 1 0 1 4.72878 12.2793 6.44521
733 1 1 0 1 -4.55893 10.4603 1.74569
734 1 1 0 1 1.04387 3.25437 3.07183
735 1 1 0 1 -6.80419 13.5844 8.38327
736 1 1 0 1 -8.86493 15.3428 -3.4605
737 1 1 0 1 1.94958 11.0506 16.531
738 1 1 0 1 9.04203 13.6075 10.6895
739 1 1 0 1 -6.93476 6.2669 16.344
740 1 1 0 1 -1.95154 10.9563 20.3117
741 1 1 0 1 -5.68062 8.1839 17.7919
742 1 1 0 1 5.63042 10.2224 21.739
743 1 1 0 1 -2.64039 10.506 21.2275
744 1 1 0 1 5.50548 17.118 26.1372
745 1 1 0 1 -3.56431 10.1924 19.4873
746 1 1 0 1 -0.816451 14.6575 19.924
747 1 1 0 1 5.40602 13.6875 21.3321
748 1 1 0 1 1.93201 14.7462 30.8326
749 1 1 0 1 0.905386 10.7057 2.7862
750 1 1 0 1 1.78153 11.33 9.11642
751 1 1 0 1 -11.7258 12.1319 6.78925
752 1 1 0 1 -1.5033 16.0852 9.41259
753 1 1 0 1 -2.31219 11.6409 7.22819
754 1 1 0 1 1.38614 12.8301 0.818909
755 1 1 0 1 1.48874 16.5639 1.39918
756 1 1 0 1 -7.36659 25.6877 4.12313
757 1 1 0 1 -5.93243 13.6262 15.227
758 1 1 0 1 -6.71711 21.2741 12.7906
759 1 1 0 1 -6.2458 9.21654 4.72717
760 1 1 0 1 -0.957054 4.22818 16.0747
761 1 1 0 1 -5.54898 16.5939 17.3409
762 1 1 0 1 -8.04675 13.2726 9.84677
763 1 1 0 1 4.32741 16.5318 12.601
764 1 1 0 1 -5.5417 19.2313 15.7594
765 1 1 0 1 0.277422 13.6767 18.405
766 1 1 0 1 -4.59607 14.8864 14.1013
767 1 1 0 1 -10.7394 12.4429 19.0008
768 1 1 0 1 -3.76963 13.7079 25.3009
769 1 1 0 1 5.53141 7.45444 23.9983
770 1 1 0 1 -2.2749 13.8927 24.66
771 1 1 0 1 -6.54971 12.0707 2.44756
772 1 1 0 1 -2.22335 15.4712 13.2999
773 1 1 0 1 -3.78168 12.2413 2.59131
774 1 1 0 1 -3.6075 9.46183 13.844
775 1 1 0 1 -7.27871 14.4011 -2.65935
776 1 1 0 1 -2.55995 12.1457 9.3549
777 1 1 0 1 -2.95154 15.6247 10.7611
778 1 1 0 1 -3.31402 14.5656 14.4369
779 1 1 0 1 -0.712333 16.5512 18.6329
780 1 1 0 1 -3.24201 17.6493 9.53282
781 1 1 0 1 2.8671 19.2601 21.1974
782 1 1 0 1 -3.23514 18.6315 15.1919
783 1 1 0 1 -3.11727 15.1107 8.91293
784 1 1 0 1 -2.7308 16.132 20.8898
785 1 1 0 1 -5.47205 25.6339 18.4462
786 1 1 0 1 -4.3905 10.7488 19.2377
787 1 1 0 1 2.96068 11.5731 23.038
788 1 1 0 1 -11.395 16.8299 13.5574
789 1 1 0 1 -5.49368 18.18 20.2316
790 1 1 0 1 -3.19976 15.3924 27.917
791 1 1 0 1 -5.1575 11.5407 21.2493
792 1 1 0 1 -1.14446 10.3594 21.8866
793 1 1 0 1 -7.69384 19.3379 4.51195
794 1 1 0 1 -1.64614 19.9203 4.63026
795 1 1 0 1 3.65597 25.194 -1.9646
796 1 1 0 1 -1.1636 17.1644 8.25207
797 1 1 0 1 -4.13621 21.2784 -1.24005
798 1 1 0 1 0.99147 12.1496 -3.05037
799 1 1 0 1 -1.31088 14.4039 8.51303
800 1 1 0 1 3.94149 7.09834 1.2964
801 1 1 0 1 8.11537 15.2758 12.3838
802 1 1 0 1 -3.21724 20.6943 10.0219
803 1 1 0 1 0.0371425 15.0344 16.7944
804 1 1 0 1 -2.49327 16.7418 14.5553
805 1 1 0 1 -6.91105 15.3627 19.657
806 1 1 0 1 -2.89232 1.30516 4.05069
807 1 1 0 1 -0.639971 16.5054 15.1194
808 1 1 0 1 -1.18185 19.0193 10.5995
809 1 1 0 1 -5.82867 18.6314 13.9426
810 1 1 0 1 0.315431 17.0994 19.1817