ITEM: TIMESTEP
20000
ITEM: NUMBER OF ATOMS
6752
ITEM: BOX BOUNDS pp pp pp
0.0000000000000000e+00 2.2000000000000000e+01
0.0000000000000000e+00 2.2000000000000000e+01
0.0000000000000000e+00 2.2000000000000000e+01
ITEM: ATOMS id mol type q mass xu yu zu
1 1 1 0 1 -2.36391 -9.41864 2.86426
2 1 1 0 1 -0.49589 3.70008 -0.694936
3 1 1 0 1 -4.8233 -0.746252 4.46699
4 1 1 0 1 -9.8104 -3.04086 4.14699
5 1 1 0 1 2.31546 6.51992 1.29474
6 1 1 0 1 -11.2221 -0.852781 8.02739
7 1 1 0 1 5.13428 6.06854 5.29438
8 1 1 0 1 3.56167 -4.08988 12.5724
9 1 1 0 1 0.511675 2.11914 10.8868
10 1 1 0 1 -7.48233 -3.07478 10.8813
11 1 1 0 1 -1.64452 1.75826 5.93487
12 1 1 0 1 -6.62447 -3.87456 16.7202
13 1 1 0 1 2.53333 4.56414 12.5284
14 1 1 0 1 -1.55761 12.65 12.6031
15 1 1 0 1 -6.29771 0.367801 10.947
16 1 1 0 1 -6.17252 -6.02061 13.3159
17 1 1 0 1 -1.4963 -1.15438 14.9168
18 1 1 0 1 -5.11715 -7.38105 20.2211
19 1 1 0 1 -2.04764 5.64649 17.5809
20 1 1 0 1 -2.11081 3.28665 17.5165
21 1 1 0 1 -8.02021 5.78858 14.542
22 1 1 0 1 -2.96737 9.48304 20.0674
23 1 1 0 1 -8.36818 -0.37902 3.16492
24 1 1 0 1 -2.55346 3.45408 -2.6632
25 1 1 0 1 -2.5189 0.793716 -8.11864
26 1 1 0 1 -0.2225 -2.0009 6.69748
27 1 1 0 1 -9.4764 -2.13029 11.3367
28 1 1 0 1 -1.43561 5.09302 1.67438
29 1 1 0 1 -3.28169 -1.75702 14.5568
30 1 1 0 1 -2.40287 -0.743224 16.467
31 1 1 0 1 -4.54377 8.02179 10.8142
32 1 1 0 1 -4.10221 -3.80201 2.18356
33 1 1 0 1 -7.68196 1.55204 10.3802
34 1 1 0 1 -4.79469 3.96979 16.1218
35 1 1 0 1 -2.345 2.46052 11.8288
36 1 1 0 1 2.58447 1.35211 4.94574
37 1 1 0 1 -5.02151 -1.2347 13.3836
38 1 1 0 1 2.60803 -0.14887 22.6178
39 1 1 0 1 1.47753 5.54631 9.20776
40 1 1 0 1 -0.705411 7.34112 18.5954
41 1 1 0 1 -5.18693 -1.68133 14.5169
42 1 1 0 1 -5.95338 1.68632 25.4882
43 1 1 0 1 1.02031 9.91991 22.4977
44 1 1 0 1 -3.25024 8.92439 18.1876
45 1 1 0 1 -8.46629 4.18315 4.45723
46 1 1 0 1 -2.54038 3.31818 9.76269
47 1 1 0 1 0.354611 1.13698 -3.01479
48 1 1 0 1 -8.51203 8.32306 3.26099
49 1 1 0 1 -1.70517 3.54012 -0.786043
50 1 1 0 1 -2.76931 3.6556 -0.304136
51 1 1 0 1 -1.37922 2.38906 2.66702
52 1 1 0 1 0.125671 1.19558 13.7698
53 1 1 0 1 -4.58079 -1.62313 3.90133
54 1 1 0 1 -6.9065 -1.87903 16.0338
55 1 1 0 1 -5.49176 3.43468 11.2428
56 1 1 0 1 0.118655 4.04279 9.99848
57 1 1 0 1 0.282487 11.1446 15.2386
58 1 1 0 1 -6.02466 13.7108 11.6663
59 1 1 0 1 -6.6578 3.51106 9.32223
60 1 1 0 1 0.361418 3.35115 18.7749
61 1 1 0 1 -6.12572 7.17104 11.958
62 1 1 0 1 3.60211 0.813797 23.3314
63 1 1 0 1 -0.195761 8.48856 5.19614
64 1 1 0 1 0.414618 -2.4988 15.938
65 1 1 0 1 -8.94858 3.44501 16.9802
66 1 1 0 1 -7.42861 3.68793 22.4908
67 1 1 0 1 -4.2738 -1.68324 -1.69285
68 1 1 0 1 -8.94714 4.40351 -5.61952
69 1 1 0 1 -5.09567 7.03991 0.909501
70 1 1 0 1 1.00279 13.0064 4.2545
71 1 1 0 1 1.13018 0.40361 6.12533
72 1 1 0 1 -12.8629 2.60956 2.17702
73 1 1 0 1 2.32877 2.39052 9.45657
74 1 1 0 1 -6.62976 3.48176 15.1342
75 1 1 0 1 -0.0554673 2.81211 12.9713
76 1 1 0 1 -5.88166 -0.58714 9.92222
77 1 1 0 1 -4.87309 -3.58887 5.63759
78 1 1 0 1 0.537337 6.85468 11.7705
79 1 1 0 1 -3.26663 3.65843 14.0247
80 1 1 0 1 2.35906 -1.1051 13.7666
81 1 1 0 1 -3.22791 8.08591 20.8545
82 1 1 0 1 -3.91901 -2.37259 9.3596
83 1 1 0 1 -4.96536 -0.872621 18.1559
84 1 1 0 1 5.38204 5.65017 15.7821
85 1 1 0 1 -6.54534 -0.602499 24.0335
86 1 1 0 1 -4.31227 0.247911 21.9565
87 1 1 0 1 -0.649921 1.14539 21.383
88 1 1 0 1 -2.93618 8.89691 21.9739
89 1 1 0 1 -2.65558 9.70788 1.91749
90 1 1 0 1 -0.32992 12.0165 6.45741
91 1 1 0 1 -3.98283 0.95862 7.27474
92 1 1 0 1 -5.60742 6.57579 5.05138
93 1 1 0 1 -0.559895 5.80962 8.05697
94 1 1 0 1 -1.92278 -3.59699 4.15337
95 1 1 0 1 -4.82376 8.6423 8.27073
96 1 1 0 1 0.678974 5.7705 5.67921
97 1 1 0 1 -4.01517 11.8533 12.8386
98 1 1 0 1 0.106802 7.57342 4.37607
99 1 1 0 1 -4.35451 6.61336 9.69985
100 1 1 0 1 0.518815 0.366089 4.99457
101 1 1 0 1 -5.61519 5.22673 7.66353
102 1 1 0 1 -5.9827 4.5833 10.871
103 1 1 0 1 -3.38168 8.29167 10.2064
104 1 1 0 1 -3.30839 14.1059 14.0966
105 1 1 0 1 -2.28485 8.02225 3.81051
106 1 1 0 1 1.07207 3.56332 22.4689
107 1 1 0 1 -6.35343 9.19447 14.9555
108 1 1 0 1 -2.13134 6.29479 14.3217
109 1 1 0 1 -7.02693 3.92633 20.3805
110 1 1 0 1 -6.8058 7.58023 23.1632
111 1 1 0 1 -4.45674 4.99978 1.62753
112 1 1 0 1 -3.36646 7.16623 -2.54582
113 1 1 0 1 -0.821642 11.0011 13.1018
114 1 1 0 1 -0.610094 9.60815 5.37679
115 1 1 0 1 -5.34366 11.2237 2.71366
116 1 1 0 1 -3.74527 15.4965 7.14801
117 1 1 0 1 -2.734 6.91843 3.60169
118 1 1 0 1 -0.910604 4.11585 8.96434
119 1 1 0 1 -2.84294 5.86371 8.49134
120 1 1 0 1 -3.62577 0.630311 11.6061
121 1 1 0 1 0.737679 2.03982 5.35634
122 1 1 0 1 -1.12149 6.91867 10.2969
123 1 1 0 1 -5.66998 5.54268 12.8049
124 1 1 0 1 -5.93643 10.2805 14.9455
125 1 1 0 1 -10.2158 9.88103 7.03165
126 1 1 0 1 -8.03148 5.30796 19.0816
127 1 1 0 1 -2.36545 8.67875 19.1437
128 1 1 0 1 -9.08421 12.1778 13.3075
129 1 1 0 1 -1.8194 7.6891 22.8231
130 1 1 0 1 -8.32553 7.65923 14.1237
131 1 1 0 1 -7.28898 1.8419 9.34029
132 1 1 0 1 -4.87453 5.31503 25.6976
133 1 1 0 1 1.97313 6.4594 4.20551
134 1 1 0 1 -6.68713 4.57351 8.38451
135 1 1 0 1 -8.0565 1.61518 0.809431
136 1 1 0 1 -3.12677 10.722 2.55801
137 1 1 0 1 -10.3137 4.60018 9.02829
138 1 1 0 1 -7.27796 8.74061 10.7716
139 1 1 0 1 2.21272 4.87341 3.95414
140 1 1 0 1 -7.87216 5.51742 3.6833
141 1 1 0 1 3.54152 5.57834 0.835997
142 1 1 0 1 -4.77947 5.05039 10.7727
143 1 1 0 1 -2.95527 3.14669 13.0909
144 1 1 0 1 2.75522 2.6583 8.56623
145 1 1 0 1 -8.15732 6.30023 18.6561
146 1 1 0 1 -6.50509 11.7974 23.5457
147 1 1 0 1 -4.08944 17.4754 14.8198
148 1 1 0 1 -6.81199 14.9617 13.8864
149 1 1 0 1 -7.47696 7.50591 18.1379
150 1 1 0 1 -6.72499 8.95417 8.95405
151 1 1 0 1 -6.82662 2.97593 20.3512
152 1 1 0 1 -5.39589 4.65777 15.6182
153 1 1 0 1 0.187476 8.88214 21.1183
154 1 1 0 1 -1.89454 1.77019 26.9614
155 1 1 0 1 -2.0338 1.26549 -4.61479
156 1 1 0 1 0.777604 7.13218 -2.07946
157 1 1 0 1 -1.75029 10.6142 3.00286
158 1 1 0 1 -4.07637 10.9731 4.82438
159 1 1 0 1 -6.43613 8.16542 0.280888
160 1 1 0 1 -4.19743 3.21694 8.85542
161 1 1 0 1 -3.40724 14.6026 6.39896
162 1 1 0 1 -3.35915 7.2054 11.9182
163 1 1 0 1 3.25319 7.85563 6.79023
164 1 1 0 1 -6.78733 5.70204 10.6728
165 1 1 0 1 -2.08191 2.31974 12.8934
166 1 1 0 1 -3.20945 10.6307 18.3523
167 1 1 0 1 -2.98018 13.7482 17.9485
168 1 1 0 1 -7.58033 5.29798 21.2961
169 1 1 0 1 -5.73798 10.0688 16.6948
170 1 1 0 1 2.09027 7.18423 21.55
171 1 1 0 1 -2.24036 11.9198 22.887
172 1 1 0 1 0.863391 9.64915 21.3477
173 1 1 0 1 -1.29771 9.61518 14.9922
174 1 1 0 1 5.13922 7.83264 25.7239
175 1 1 0 1 -6.51754 7.99459 18.0311
176 1 1 0 1 -0.0590866 2.49907 26.4567
177 1 1 0 1 -8.3694 5.1735 1.02813
178 1 1 0 1 0.61643 15.3646 8.97797
179 1 1 0 1 -5.58419 15.1444 -2.62208
180 1 1 0 1 1.64409 13.9431 1.64708
181 1 1 0 1 -4.93429 16.0217 3.08799
182 1 1 0 1 -4.05957 13.7886 5.74451
183 1 1 0 1 -8.00593 12.44 6.5547
184 1 1 0 1 -3.94461 5.52941 9.18939
185 1 1 0 1 -8.86028 -0.848831 8.84912
186 1 1 0 1 -11.8216 18.0146 6.44934
187 1 1 0 1 -8.89996 14.8975 13.1286
188 1 1 0 1 -2.43185 1.28265 11.874
189 1 1 0 1 2.35844 10.6994 16.7339
190 1 1 0 1 -8.32124 6.44623 12.5745
191 1 1 0 1 -5.06173 9.42915 19.7579
192 1 1 0 1 -2.59273 7.61675 15.3624
193 1 1 0 1 -1.34223 5.77504 19.1075
194 1 1 0 1 7.72994 11.6281 22.2146
195 1 1 0 1 -3.39213 7.83499 16.2533
196 1 1 0 1 -0.0875695 9.41755 18.2074
197 1 1 0 1 -4.51172 7.91134 16.7183
198 1 1 0 1 9.42668 9.16017 25.9781
199 1 1 0 1 3.36429 11.295 1.60113
200 1 1 0 1 3.9598 6.38597 5.53921
201 1 1 0 1 -5.53779 13.011 -3.41198
202 1 1 0 1 0.677504 3.63384 8.02332
203 1 1 0 1 -7.81652 15.4096 7.19044
204 1 1 0 1 -3.65861 8.013 15.2015
205 1 1 0 1 -0.1473 7.6206 3.29908
206 1 1 0 1 1.04824 10.4491 5.67272
207 1 1 0 1 -3.97191 8.64129 2.49749
208 1 1 0 1 -2.85763 5.68379 12.7117
209 1 1 0 1 -3.49058 0.929524 4.32804
210 1 1 0 1 -6.4252 7.92248 8.72416
211 1 1 0 1 -1.57529 7.34952 8.54209
212 1 1 0 1 -8.75048 7.2521 11.4875
213 1 1 0 1 1.92763 8.23531 23.451
214 1 1 0 1 -14.637 19.7497 18.1979
215 1 1 0 1 -5.67202 11.0557 17.275
216 1 1 0 1 -4.79876 6.98398 19.7111
217 1 1 0 1 -7.71095 14.9165 24.5646
218 1 1 0 1 -1.78891 9.9542 23.355
219 1 1 0 1 4.35486 11.4192 24.0126
220 1 1 0 1 5.06575 13.2476 21.0714
221 1 1 0 1 8.41623 11.3831 -5.36385
222 1 1 0 1 -7.21038 11.7776 -0.0922875
223 1 1 0 1 -8.13612 12.8387 2.77342
224 1 1 0 1 -6.47131 8.60468 -2.52867
225 1 1 0 1 -9.63877 16.846 4.77616
226 1 1 0 1 -12.3693 12.7768 9.97981
227 1 1 0 1 -8.61974 13.2913 3.72728
228 1 1 0 1 -9.97225 16.0438 3.1064
229 1 1 0 1 -0.102436 8.20381 9.22495
230 1 1 0 1 -2.90381 14.2042 8.50198
231 1 1 0 1 -5.74703 9.98718 12.2643
232 1 1 0 1 1.82546 2.05256 13.8404
233 1 1 0 1 -0.985919 12.9928 13.4917
234 1 1 0 1 -10.8801 8.83308 10.332
235 1 1 0 1 -4.69975 10.7652 18.3112
236 1 1 0 1 -8.65983 13.9521 16.5423
237 1 1 0 1 -10.0127 13.907 17.6341
238 1 1 0 1 -7.84243 13.8333 15.7413
239 1 1 0 1 -7.23908 10.5838 17.198
240 1 1 0 1 -5.55735 13.4323 13.4118
241 1 1 0 1 -4.33888 7.71489 18.215
242 1 1 0 1 -1.60774 2.5609 22.7991
243 1 1 0 1 -0.831143 13.9514 -0.045241
244 1 1 0 1 -3.98471 10.8559 1.77382
245 1 1 0 1 -2.78448 15.9537 1.92124
246 1 1 0 1 0.0490406 11.3485 5.61262
247 1 1 0 1 -4.68643 11.7298 6.00483
248 1 1 0 1 -3.13517 0.131083 7.24457
249 1 1 0 1 -10.5625 14.0899 9.0677
250 1 1 0 1 -2.73747 5.30436 7.50364
251 1 1 0 1 -6.05011 7.37417 6.82038
252 1 1 0 1 -1.52781 2.85668 5.45826
253 1 1 0 1 -1.69269 -0.879774 17.939
254 1 1 0 1 0.487673 13.0115 16.2346
255 1 1 0 1 -8.22213 2.61017 8.47649
256 1 1 0 1 -10.7074 18.9586 12.1402
257 1 1 0 1 2.11281 17.992 17.1649
258 1 1 0 1 1.31878 13.725 16.7229
259 1 1 0 1 -5.44113 12.2517 20.7581
260 1 1 0 1 -1.24068 14.3452 17.1709
261 1 1 0 1 -4.0384 8.97188 20.0312
262 1 1 0 1 -2.84539 10.4926 20.7699
263 1 1 0 1 3.39671 16.7574 20.4188
264 1 1 0 1 1.14103 15.6189 23.1359
265 1 1 0 1 -3.48684 12.0227 0.0321305
266 1 1 0 1 5.45496 14.7471 3.72216
267 1 1 0 1 -3.96738 17.0421 8.56455
268 1 1 0 1 -3.19321 6.88812 -1.31841
269 1 1 0 1 -1.01947 10.4286 11.543
270 1 1 0 1 0.0811029 14.2238 -1.36083
271 1 1 0 1 -4.7625 3.9865 10.662
272 1 1 0 1 -8.29846 10.2365 14.0813
273 1 1 0 1 -4.54276 11.0239 6.86918
274 1 1 0 1 -9.1675 7.75128 7.19029
275 1 1 0 1 -8.97851 4.97119 12.8508
276 1 1 0 1 -4.07381 13.4658 11.3568
277 1 1 0 1 -4.13373 8.88379 14.8832
278 1 1 0 1 -1.30641 15.5555 15.8516
279 1 1 0 1 -6.06736 15.6077 9.54234
280 1 1 0 1 -7.16651 13.5952 8.12027
281 1 1 0 1 1.21707 10.9482 29.4457
282 1 1 0 1 -4.83119 11.8516 9.52202
283 1 1 0 1 0.0981839 14.4687 14.587
284 1 1 0 1 -6.80992 12.1765 15.6895
285 1 1 0 1 -4.75646 6.58008 16.5657
286 1 1 0 1 -1.14629 11.4319 18.1653
287 1 1 0 1 -6.59697 19.187 5.01706
288 1 1 0 1 -2.3293 15.0078 -1.50055
289 1 1 0 1 -8.59337 5.17562 5.53886
290 1 1 0 1 -2.20092 10.6121 5.37866
291 1 1 0 1 -9.44886 3.77553 9.18071
292 1 1 0 1 -8.24081 13.1862 9.92111
293 1 1 0 1 -0.846699 8.63676 6.10423
294 1 1 0 1 -0.85504 13.5745 8.30057
295 1 1 0 1 -4.25189 9.30067 9.93681
296 1 1 0 1 -1.99796 13.58 12.227
297 1 1 0 1 -6.25225 10.997 8.04321
298 1 1 0 1 -9.01992 2.59891 18.252
299 1 1 0 1 0.37969 19.8643 14.2846
300 1 1 0 1 -0.2243 17.0932 19.8499
301 1 1 0 1 -4.39538 16.8015 16.0039
302 1 1 0 1 -5.04524 14.6664 17.1503
303 1 1 0 1 -9.57082 16.6531 11.7914
304 1 1 0 1 -1.30313 10.0892 8.77431
305 1 1 0 1 4.32973 13.8101 20.4261
306 1 1 0 1 -1.10237 12.5212 21.0534
307 1 1 0 1 2.09801 16.3892 17.9751
308 1 1 0 1 1.17643 25.3839 28.5004
309 1 1 0 1 1.50119 14.0744 3.73596
310 1 1 0 1 1.01448 15.154 3.82459
311 1 1 0 1 -8.4977 13.5337 -1.58772
312 1 1 0 1 -8.17867 5.24139 2.58133
313 1 1 0 1 -8.28774 13.9422 -0.540283
314 1 1 0 1 1.12183 12.0315 3.06561
315 1 1 0 1 1.37881 8.34467 9.13365
316 1 1 0 1 -7.10153 15.0324 5.99031
317 1 1 0 1 -5.64657 14.6792 9.55549
318 1 1 0 1 -4.99392 15.7823 10.6244
319 1 1 0 1 -4.33802 11.229 8.91369
320 1 1 0 1 2.23072 18.2831 8.38773
321 1 1 0 1 -6.72151 16.048 14.3163
322 1 1 0 1 -0.990064 12.8472 16.6508
323 1 1 0 1 -4.12686 16.3501 10.3429
324 1 1 0 1 -1.8292 13.0124 6.48582
325 1 1 0 1 0.407407 10.9774 7.98384
326 1 1 0 1 -7.68434 16.1797 17.4702
327 1 1 0 1 -7.73749 12.651 17.967
328 1 1 0 1 -1.76184 16.8434 21.5559
329 1 1 0 1 1.94967 10.2044 25.6155
330 1 1 0 1 4.42152 14.985 23.1501
331 1 1 0 1 -3.78925 14.5234 7.44493
332 1 1 0 1 -4.72799 18.57 4.56467
333 1 1 0 1 -3.61167 9.80865 6.65337
334 1 1 0 1 -3.79692 17.2528 1.96321
335 1 1 0 1 -0.341778 12.5378 10.1119
336 1 1 0 1 -5.83677 11.776 4.31472
337 1 1 0 1 -2.13233 11.3426 7.46366
338 1 1 0 1 -3.5081 10.4368 8.98786
339 1 1 0 1 -9.95495 11.9923 6.55876
340 1 1 0 1 0.0668593 9.98632 8.45225
341 1 1 0 1 -6.42337 5.89219 7.84066
342 1 1 0 1 -4.42802 16.6443 11.5768
343 1 1 0 1 -2.00962 13.1161 7.65646
344 1 1 0 1 -7.61105 11.1283 12.3278
345 1 1 0 1 -8.12627 18.3991 13.5708
346 1 1 0 1 4.06639 17.3313 18.1742
347 1 1 0 1 -0.202263 19.5717 18.6875
348 1 1 0 1 -1.93543 12.1486 20.2389
349 1 1 0 1 -2.34354 18.9427 18.0817
350 1 1 0 1 -0.784266 19.6582 20.1061
351 1 1 0 1 -7.17925 21.249 16.9481
352 1 1 0 1 -0.353986 18.108 28.449
353 1 1 0 1 -8.27898 19.4088 -2.55104
354 1 1 0 1 2.28039 19.5198 0.063873
355 1 1 0 1 -9.41897 7.77385 5.64779
356 1 1 0 1 -5.80103 9.69896 7.15692
357 1 1 0 1 -1.57268 14.4922 4.0839
358 1 1 0 1 -2.27234 14.99 5.654
359 1 1 0 1 -9.31156 14.2638 6.28612
360 1 1 0 1 -0.932048 12.6782 7.22138
361 1 1 0 1 -3.08605 21.1998 13.2285
362 1 1 0 1 -0.55383 11.0162 8.58809
363 1 1 0 1 3.17547 12.9779 9.22115
364 1 1 0 1 4.39871 12.7396 8.31713
365 1 1 0 1 -1.62299 5.24751 6.58667
366 1 1 0 1 -8.32712 15.4027 12.3816
367 1 1 0 1 -1.56306 9.82607 13.6723
368 1 1 0 1 -4.55089 19.6503 19.1298
369 1 1 0 1 -4.29705 14.3127 12.9469
370 1 1 0 1 -1.71221 5.55775 7.72149
371 1 1 0 1 -5.82061 19.6107 23.9066
372 1 1 0 1 -4.10548 14.8132 17.6972
373 1 1 0 1 -6.40446 12.3674 18.7438
374 1 1 0 1 -3.0162 13.2333 28.5171
375 1 1 0 1 -6.07335 5.58589 5.27311
376 1 1 0 1 -4.11445 14.6634 0.804684
377 1 1 0 1 -8.64818 12.3658 1.16532
378 1 1 0 1 -8.70029 12.7912 5.38913
379 1 1 0 1 -1.06101 16.7524 -4.08715
380 1 1 0 1 -5.82808 15.337 1.79109
381 1 1 0 1 -5.82379 17.1138 5.55118
382 1 1 0 1 -12.9983 15.7766 14.8794
383 1 1 0 1 -2.64702 20.0302 13.2337
384 1 1 0 1 0.642497 12.4916 13.2695
385 1 1 0 1 -3.94784 15.1074 8.83047
386 1 1 0 1 -4.86937 11.5481 11.0851
387 1 1 0 1 -5.58018 8.98953 16.7806
388 1 1 0 1 -2.79775 17.2936 17.5017
389 1 1 0 1 -3.32708 16.4304 15.1926
390 1 1 0 1 -3.15795 14.9975 19.4643
391 1 1 0 1 -3.59138 19.4896 18.9112
392 1 1 0 1 -8.78939 15.7079 6.83697
393 1 1 0 1 -4.5692 11.6011 14.2251
394 1 1 0 1 -3.03155 18.9112 22.7252
395 1 1 0 1 -12.4029 13.2652 14.5893
396 1 1 0 1 0.410351 13.7288 25.336
397 1 1 0 1 -2.67914 17.8362 1.01432
398 1 1 0 1 -3.1093 24.8543 0.547475
399 1 1 0 1 -1.9291 14.0286 -1.11704
400 1 1 0 1 -7.02113 7.77162 6.62906
401 1 1 0 1 -0.33815 11.4509 11.8602
402 1 1 0 1 -2.84024 11.9497 10.7454
403 1 1 0 1 3.8195 17.5819 11.5019
404 1 1 0 1 -4.20657 25.6159 3.72933
405 1 1 0 1 -11.3361 14.1484 8.45201
406 1 1 0 1 -7.83607 15.9958 9.11994
407 1 1 0 1 -3.53227 16.2376 6.10595
408 1 1 0 1 -7.87229 17.1074 9.53308
409 1 1 0 1 -9.23561 11.5686 17.8385
410 1 1 0 1 -6.10395 4.22199 7.65481
411 1 1 0 1 2.98035 15.198 10.1414
412 1 1 0 1 -10.4182 15.5022 4.99116
413 1 1 0 1 -7.63845 16.1138 18.7386
414 1 1 0 1 -6.45308 12.2017 20.3674
415 1 1 0 1 -3.12884 15.7959 25.9874
416 1 1 0 1 -2.75739 12.2856 28.4583
417 1 1 0 1 0.0855869 19.9121 23.0362
418 1 1 0 1 1.90846 13.3919 26.5334
419 1 1 0 1 -7.92883 17.9433 6.18975
420 1 1 0 1 -2.15882 26.8352 15.7663
421 1 1 0 1 -6.95967 16.8389 5.388
422 1 1 0 1 -2.9586 5.25447 4.54283
423 1 1 0 1 -1.73267 26.2492 9.75231
424 1 1 0 1 -2.8547 17.1191 8.99031
425 1 1 0 1 -3.26137 12.2174 3.27128
426 1 1 0 1 -4.69309 21.7771 -3.11559
427 1 1 0 1 -4.55483 23.4527 9.56608
428 1 1 0 1 1.1246 17.8611 3.97293
429 1 1 0 1 -7.25193 23.4201 6.7317
430 1 1 0 1 -1.03334 15.3395 9.76149
431 1 1 0 1 -7.90391 14.9839 16.2806
432 1 1 0 1 0.423122 24.9991 11.7713
433 1 1 0 1 -5.15095 18.4184 12.7334
434 1 1 0 1 -4.23521 6.59215 15.2061
435 1 1 0 1 -2.64088 9.86886 21.7334
436 1 1 0 1 -7.89175 13.7388 14.679
437 1 1 0 1 -3.90835 19.4263 16.8023
438 1 1 0 1 -5.36802 17.6368 17.3576
439 1 1 0 1 -3.28673 22.0298 20.6398
440 1 1 0 1 -2.79842 11.1908 22.2964
441 1 1 0 1 -4.50426 18.4585 -2.56815
442 1 1 0 1 -4.02704 25.0868 7.43377
443 1 1 0 1 -3.13975 17.6541 -1.06453
444 1 1 0 1 -3.57094 23.2582 -0.870407
445 1 1 0 1 -9.26474 15.2049 3.35903
446 1 1 0 1 1.45848 6.96085 9.85106
447 1 1 0 1 0.368866 10.2364 7.08597
448 1 1 0 1 -10.7441 13.8195 10.2949
449 1 1 0 1 -3.15815 20.8568 11.347
450 1 1 0 1 -1.93084 11.6881 21.4587
451 1 1 0 1 -9.19649 14.629 11.1355
452 1 1 0 1 -5.69728 18.4755 21.2059
453 1 1 0 1 -6.28076 17.6656 19.1549
454 1 1 0 1 3.69006 23.8748 17.3475
455 1 1 0 1 -2.93801 5.53797 6.29789
456 1 1 0 1 -3.28513 15.2077 13.4134
457 1 1 0 1 -5.30209 23.0761 12.0861
458 1 1 0 1 -12.5364 13.8817 13.8287
459 1 1 0 1 -6.90024 14.3662 15.8308
460 1 1 0 1 -2.89389 11.6107 20.0927
461 1 1 0 1 0.156396 22.1953 14.2711
462 1 1 0 1 5.06579 24.9626 23.4121
463 1 1 0 1 2.60536 23.8861 -6.61949
464 1 1 0 1 -2.14735 22.1897 9.57454
465 1 1 0 1 6.91991 25.9854 0.744082
466 1 1 0 1 3.53298 29.1647 3.55144
467 1 1 0 1 -6.67503 19.7466 9.35609
468 1 1 0 1 -4.03991 20.0879 5.42245
469 1 1 0 1 -1.89034 15.3705 11.7672
470 1 1 0 1 -1.70095 23.1222 9.21694
471 1 1 0 1 -5.85894 7.67587 5.84548
472 1 1 0 1 3.01686 28.7453 11.8802
473 1 1 0 1 -6.30169 18.6944 9.02653
474 1 1 0 1 0.521551 18.1949 10.9403
475 1 1 0 1 -0.436298 17.1617 14.5934
476 1 1 0 1 3.01573 25.3738 18.8534
477 1 1 0 1 -0.648821 19.248 14.525
478 1 1 0 1 5.78654 23.0627 15.472
479 1 1 0 1 -5.71345 29.2547 14.8331
480 1 1 0 1 3.89546 20.1806 20.8626
481 1 1 0 1 -1.12617 19.5052 17.3504
482 1 1 0 1 -4.71177 31.572 16.1514
483 1 1 0 1 -1.21045 18.2758 30.8078
484 1 1 0 1 -3.5212 20.3734 25.6947
485 1 1 0 1 -0.718234 -7.68007 1.94381
486 1 1 0 1 0.266684 7.52048 -7.20267
487 1 1 0 1 -0.657198 5.44224 -0.456914
488 1 1 0 1 -1.94029 -1.19615 1.52418
489 1 1 0 1 -0.25522 3.8845 -2.66323
490 1 1 0 1 -8.52156 -2.50129 3.5119
491 1 1 0 1 -5.24913 3.13175 6.86681
492 1 1 0 1 -1.5696 -10.4223 12.3585
493 1 1 0 1 -0.930772 -2.91425 11.8122
494 1 1 0 1 -5.6345 -0.96154 5.23924
495 1 1 0 1 -8.75157 4.61324 15.3515
496 1 1 0 1 -2.99912 6.13255 17.4611
497 1 1 0 1 -2.83207 -7.27332 14.8141
498 1 1 0 1 -0.246558 2.55361 16.2452
499 1 1 0 1 -0.721529 6.12407 9.42287
500 1 1 0 1 -5.13782 -3.82898 18.5965
501 1 1 0 1 -2.04586 -1.14806 9.62671
502 1 1 0 1 0.932699 -5.78377 18.3161
503 1 1 0 1 -4.12526 8.51227 15.99
504 1 1 0 1 0.358123 -1.08707 9.71364
505 1 1 0 1 -7.18331 -1.79063 13.0932
506 1 1 0 1 -2.00344 4.5137 17.4884
507 1 1 0 1 -0.667313 5.07538 -2.25684
508 1 1 0 1 -2.46493 5.57761 0.0138165
509 1 1 0 1 -1.29157 4.24075 3.64951
510 1 1 0 1 -4.91512 -4.29175 0.20937
511 1 1 0 1 3.05281 0.313564 3.40685
512 1 1 0 1 -3.3309 11.0596 7.32887
513 1 1 0 1 -2.71745 -3.05695 7.25854
514 1 1 0 1 -1.92418 -0.246202 2.34691
515 1 1 0 1 9.61189 8.15494 2.88627
516 1 1 0 1 -6.57236 6.06564 12.5438
517 1 1 0 1 -4.08788 2.2073 8.75425
518 1 1 0 1 0.72523 1.4091 4.4789
519 1 1 0 1 2.6946 1.39987 17.3051
520 1 1 0 1 0.814441 -1.55049 11.1613
521 1 1 0 1 -0.718674 5.92919 12.1521
522 1 1 0 1 -6.3385 6.73121 8.70543
523 1 1 0 1 3.10695 0.677837 13.8608
524 1 1 0 1 -1.97453 3.0487 15.7758
525 1 1 0 1 -4.42742 1.82369 24.2125
526 1 1 0 1 1.40086 -4.8793 26.6958
527 1 1 0 1 0.445476 8.81153 19.8011
528 1 1 0 1 1.9048 2.07627 24.2004
529 1 1 0 1 8.71043 8.95063 6.35655
530 1 1 0 1 0.0737335 -0.134305 -5.5349
531 1 1 0 1 2.44811 9.92495 -3.6304
532 1 1 0 1 -0.495013 -5.37781 3.97717
533 1 1 0 1 -4.47088 3.15262 -1.80139
534 1 1 0 1 -0.10633 -0.635756 5.0508
535 1 1 0 1 3.63175 5.52894 -0.556075
536 1 1 0 1 -1.27062 8.64504 2.96813
537 1 1 0 1 -2.05327 3.50335 6.59211
538 1 1 0 1 -3.88012 -2.05021 13.2252
539 1 1 0 1 0.159673 5.26984 14.761
540 1 1 0 1 0.491939 8.1902 10.0762
541 1 1 0 1 -5.34243 7.96803 11.8226
542 1 1 0 1 -4.81323 8.12369 13.2579
543 1 1 0 1 -5.57915 8.81764 9.28245
544 1 1 0 1 1.21102 5.24919 10.2381
545 1 1 0 1 1.90681 6.77171 11.8302
546 1 1 0 1 -1.52647 -2.44035 13.2713
547 1 1 0 1 0.446185 2.66416 20.5756
548 1 1 0 1 0.695428 6.60861 28.2694
549 1 1 0 1 -1.90644 6.57284 26.3194
550 1 1 0 1 -5.44236 6.03239 22.5785
551 1 1 0 1 -1.45653 9.49444 -2.25805
552 1 1 0 1 -5.65389 4.65523 -4.26399
553 1 1 0 1 -0.328786 7.39918 -0.195922
554 1 1 0 1 0.267294 4.55299 -1.79626
555 1 1 0 1 -0.995635 9.45996 -4.25977
556 1 1 0 1 -0.157576 2.8968 2.86002
557 1 1 0 1 2.82261 6.37504 2.38529
558 1 1 0 1 -0.301535 2.27344 7.30215
559 1 1 0 1 -0.541049 -0.205515 10.7326
560 1 1 0 1 -4.02856 -1.85989 2.60389
561 1 1 0 1 -0.471484 4.34184 17.0763
562 1 1 0 1 2.94921 4.88065 18.5352
563 1 1 0 1 -1.65253 4.14067 13.4068
564 1 1 0 1 -4.96461 -2.83953 7.02626
565 1 1 0 1 5.81868 5.00666 19.7125
566 1 1 0 1 2.65322 4.70094 13.5457
567 1 1 0 1 -2.8924 2.86055 18.2274
568 1 1 0 1 5.83137 4.59564 15.5846
569 1 1 0 1 0.81667 8.45123 16.9798
570 1 1 0 1 -5.22027 3.01691 22.752
571 1 1 0 1 5.80639 6.90391 19.8238
572 1 1 0 1 0.663185 3.69112 20.7702
573 1 1 0 1 1.40217 5.77708 -1.39193
574 1 1 0 1 -2.65581 4.53513 5.99864
575 1 1 0 1 -4.74076 2.40826 -4.65187
576 1 1 0 1 -3.46479 7.30552 -0.410232
577 1 1 0 1 -5.51162 2.2014 5.62719
578 1 1 0 1 -4.80322 9.77145 14.8876
579 1 1 0 1 -3.7187 2.66147 4.28087
580 1 1 0 1 -2.74509 3.26699 10.9135
581 1 1 0 1 -2.79194 10.0377 10.4165
582 1 1 0 1 1.29881 3.22616 10.9944
583 1 1 0 1 -4.79434 8.68388 12.3913
584 1 1 0 1 -2.52546 7.06979 16.198
585 1 1 0 1 -7.11015 0.274076 13.496
586 1 1 0 1 -0.923606 16.396 16.68
587 1 1 0 1 -5.75549 14.4628 14.8738
588 1 1 0 1 -5.65286 1.93854 18.3708
589 1 1 0 1 -6.66023 6.06265 17.0956
590 1 1 0 1 -5.20637 6.11438 14.6868
591 1 1 0 1 -6.55001 4.9028 12.6906
592 1 1 0 1 0.0574649 0.725277 22.7572
593 1 1 0 1 -0.00861126 3.67177 16.089
594 1 1 0 1 -8.60322 -2.36331 17.1031
595 1 1 0 1 -0.202238 6.36793 -3.83314
596 1 1 0 1 1.26076 7.55841 4.49664
597 1 1 0 1 -7.47134 1.70032 5.3464
598 1 1 0 1 2.57899 7.32137 0.531192
599 1 1 0 1 3.54331 9.8771 1.59024
600 1 1 0 1 -1.72563 9.06784 5.74955
601 1 1 0 1 -6.6569 5.99142 4.06105
602 1 1 0 1 -0.179714 -2.80337 2.95217
603 1 1 0 1 3.07383 -5.34284 14.5696
604 1 1 0 1 9.22831 7.72028 14.1817
605 1 1 0 1 1.3161 6.20601 10.973
606 1 1 0 1 -8.37721 -2.01383 12.4127
607 1 1 0 1 -5.39189 5.64877 6.64248
608 1 1 0 1 1.02395 -4.87361 8.84832
609 1 1 0 1 5.6616 10.803 13.742
610 1 1 0 1 3.36596 5.25742 12.7371
611 1 1 0 1 2.20967 7.23638 10.861
612 1 1 0 1 4.02887 3.30751 23.6128
613 1 1 0 1 -0.942651 3.02905 17.0077
614 1 1 0 1 -3.85853 5.67571 25.1747
615 1 1 0 1 -8.83731 8.10825 21.1482
616 1 1 0 1 -7.61568 9.53956 17.1938
617 1 1 0 1 0.96465 1.69087 -1.10218
618 1 1 0 1 -8.37692 5.84253 -1.1991
619 1 1 0 1 1.43515 17.9755 2.71206
620 1 1 0 1 3.3466 8.69254 8.27447
621 1 1 0 1 -3.87392 5.94731 5.51925
622 1 1 0 1 -7.10866 3.1465 3.91435
623 1 1 0 1 -4.95616 9.38264 5.36732
624 1 1 0 1 0.0481213 4.8725 3.92702
625 1 1 0 1 -1.53274 4.02105 5.59579
626 1 1 0 1 -0.167746 7.60795 12.3401
627 1 1 0 1 -8.03073 -2.17277 16.2978
628 1 1 0 1 3.34681 0.425344 4.51915
629 1 1 0 1 1.72801 12.8236 17.3851
630 1 1 0 1 0.568242 11.4168 16.7948
631 1 1 0 1 -0.723416 7.74249 13.6417
632 1 1 0 1 5.84619 8.08831 16.0937
633 1 1 0 1 -12.8653 10.6907 14.5826
634 1 1 0 1 -1.23198 5.49003 15.5362
635 1 1 0 1 1.95083 4.80838 16.6036
636 1 1 0 1 -0.233055 3.896 18.1915
637 1 1 0 1 -4.9201 3.04133 19.1777
638 1 1 0 1 -2.87914 4.82699 21.266
639 1 1 0 1 -4.57662 -0.763553 7.36026
640 1 1 0 1 -1.27323 10.1213 3.79869
641 1 1 0 1 9.29168 6.36865 2.02396
642 1 1 0 1 0.343171 13.053 5.12758
643 1 1 0 1 1.03636 10.0259 7.93611
644 1 1 0 1 -4.67181 5.22236 0.427466
645 1 1 0 1 -1.43925 2.50428 6.56865
646 1 1 0 1 2.11789 4.9149 8.12806
647 1 1 0 1 -5.24182 9.79171 -4.29341
648 1 1 0 1 -5.09473 12.5018 13.1616
649 1 1 0 1 -2.59411 7.9763 8.11419
650 1 1 0 1 5.55961 5.23617 11.0548
651 1 1 0 1 -0.0622609 7.73545 7.16622
652 1 1 0 1 -4.18676 15.7191 18.3507
653 1 1 0 1 -5.15846 18.3305 11.7387
654 1 1 0 1 1.84866 8.21976 22.2111
655 1 1 0 1 -3.17182 7.14967 7.39768
656 1 1 0 1 -5.56549 4.44583 16.6391
657 1 1 0 1 1.17867 7.38172 14.4411
658 1 1 0 1 2.39345 10.7912 27.2858
659 1 1 0 1 -2.21138 8.12939 16.5996
660 1 1 0 1 1.46474 8.24273 19.6888
661 1 1 0 1 -1.26509 10.1996 0.235635
662 1 1 0 1 1.21393 9.08189 -1.55678
663 1 1 0 1 -2.75069 7.08947 1.26695
664 1 1 0 1 -3.77341 9.15687 5.8734
665 1 1 0 1 -7.46253 2.3359 4.59025
666 1 1 0 1 6.15408 8.96968 14.6624
667 1 1 0 1 -5.97535 7.8499 -2.00652
668 1 1 0 1 -7.88447 4.02016 1.75289
669 1 1 0 1 3.11971 7.73539 5.41772
670 1 1 0 1 -2.7405 6.99582 8.31374
671 1 1 0 1 0.0585535 4.28966 2.31241
672 1 1 0 1 1.37308 17.3483 13.317
673 1 1 0 1 -4.80653 16.667 14.9525
674 1 1 0 1 -2.05949 15.8694 16.5519
675 1 1 0 1 -1.64649 13.2685 18.6479
676 1 1 0 1 -7.26874 4.36091 15.3399
677 1 1 0 1 -4.73615 11.4469 20.6729
678 1 1 0 1 6.1258 6.18522 17.7214
679 1 1 0 1 -9.19794 5.54937 15.5082
680 1 1 0 1 -1.81395 6.98678 15.2855
681 1 1 0 1 -0.908072 11.5095 21.8023
682 1 1 0 1 4.49937 11.7718 22.7827
683 1 1 0 1 -0.315759 13.4824 2.42881
684 1 1 0 1 -1.09842 4.50503 0.488478
685 1 1 0 1 -1.79328 15.404 9.10822
686 1 1 0 1 0.227607 4.89768 5.9978
687 1 1 0 1 -0.121667 17.6013 5.62483
688 1 1 0 1 -3.85626 14.0212 8.54287
689 1 1 0 1 -2.35726 2.45971 7.23845
690 1 1 0 1 1.72461 9.23824 14.1705
691 1 1 0 1 -0.357733 1.69129 3.93706
692 1 1 0 1 -1.59748 8.53511 8.46848
693 1 1 0 1 1.09811 5.58313 19.6292
694 1 1 0 1 -7.19243 12.9528 14.96
695 1 1 0 1 -1.19853 10.1158 16.4542
696 1 1 0 1 -2.40713 5.83896 20.5639
697 1 1 0 1 0.20797 8.90736 16.2623
698 1 1 0 1 -7.03372 8.87043 18.2279
699 1 1 0 1 0.527272 7.56354 20.9878
700 1 1 0 1 2.92299 14.0239 18.01
701 1 1 0 1 -4.00508 13.4069 15.7233
702 1 1 0 1 -4.86711 5.30453 18.3972
703 1 1 0 1 -0.428393 13.7143 17.9031
704 1 1 0 1 4.33992 18.7035 17.3709
705 1 1 0 1 0.826827 10.2783 4.04961
706 1 1 0 1 -0.690609 9.1791 -1.54347
707 1 1 0 1 -0.606725 25.0584 1.97242
708 1 1 0 1 6.05791 9.7279 2.28867
709 1 1 0 1 -6.00646 9.96671 5.11886
710 1 1 0 1 -0.776686 14.8504 4.46407
711 1 1 0 1 -5.94295 4.7218 6.80845
712 1 1 0 1 -2.36692 13.2126 13.2005
713 1 1 0 1 -3.49016 11.2506 9.85845
714 1 1 0 1 0.616857 11.8766 4.66055
715 1 1 0 1 -2.75951 8.71766 15.7183
716 1 1 0 1 -2.09549 12.2578 16.7371
717 1 1 0 1 -5.61337 14.2151 16.2214
718 1 1 0 1 -0.00121987 10.274 14.6168
719 1 1 0 1 -2.77524 8.78181 17.2713
720 1 1 0 1 -2.06176 12.8586 21.3598
721 1 1 0 1 -10.9486 9.98546 14.1427
722 1 1 0 1 5.03695 17.9525 26.1831
723 1 1 0 1 -0.00511332 13.0259 19.2754
724 1 1 0 1 1.04537 13.6033 22.7276
725 1 1 0 1 0.257123 14.5428 26.2933
726 1 1 0 1 -5.0178 18.7181 23.8038
727 1 1 0 1 1.37645 12.5704 2.02397
728 1 1 0 1 -3.00656 12.7105 -1.98217
729 1 1 0 1 -5.86878 5.86143 -4.11474
730 1 1 0 1 -1.54472 16.0391 5.48846
731 1 1 0 1 -0.987288 14.8069 5.60677
732 1 1 0 1 5.79002 12.6158 4.76294
733 1 1 0 1 -3.63401 9.8313 2.10577
734 1 1 0 1 1.03579 4.73749 3.96233
735 1 1 0 1 -5.0868 13.7163 4.97425
736 1 1 0 1 -7.25255 15.9708 -1.8333
737 1 1 0 1 1.17362 12.3919 16.6506
738 1 1 0 1 9.81863 13.2541 11.1812
739 1 1 0 1 -2.55089 7.41581 17.4643
740 1 1 0 1 -1.83827 10.0939 20.5902
741 1 1 0 1 -3.1173 10.5954 19.8121
742 1 1 0 1 5.23495 8.63526 23.7924
743 1 1 0 1 -0.420576 12.9477 21.9922
744 1 1 0 1 6.19034 16.8245 26.6981
745 1 1 0 1 -1.97548 9.32262 22.3679
746 1 1 0 1 -2.5851 12.8059 18.1475
747 1 1 0 1 3.81452 12.625 23.1875
748 1 1 0 1 0.240941 15.6235 30.0057
749 1 1 0 1 1.0395 13.0564 2.8428
750 1 1 0 1 1.89871 10.6903 6.32794
751 1 1 0 1 -12.8872 11.8094 7.03039
752 1 1 0 1 0.54611 14.3961 8.36603
753 1 1 0 1 -1.63247 10.2937 7.19181
754 1 1 0 1 0.926927 10.9356 2.95611
755 1 1 0 1 0.459828 18.7626 0.919661
756 1 1 0 1 -9.90847 23.7078 4.80483
757 1 1 0 1 -4.78694 13.0914 14.0763
758 1 1 0 1 -7.21204 19.6978 12.1475
759 1 1 0 1 -5.99246 5.39022 8.67748
760 1 1 0 1 -1.03768 4.63642 14.9421
761 1 1 0 1 -6.62956 18.1625 15.5793
762 1 1 0 1 -6.69657 13.5159 12.815
763 1 1 0 1 0.540128 16.4586 11.7188
764 1 1 0 1 -2.30315 19.0256 14.6206
765 1 1 0 1 2.00879 15.9228 20.2556
766 1 1 0 1 -5.37186 13.1225 16.4449
767 1 1 0 1 -5.97125 14.176 19.4224
768 1 1 0 1 -1.70706 13.832 23.8923
769 1 1 0 1 4.58065 10.2051 20.6155
770 1 1 0 1 -2.61986 16.4215 24.9455
771 1 1 0 1 -4.51536 12.8855 4.32659
772 1 1 0 1 -1.05622 16.405 12.8432
773 1 1 0 1 -3.43611 11.5154 5.43079
774 1 1 0 1 -2.39053 11.8808 13.7603
775 1 1 0 1 -9.3141 12.9288 -2.70335
776 1 1 0 1 -0.654976 9.78285 7.7748
777 1 1 0 1 -4.90621 16.6638 9.59515
778 1 1 0 1 -3.27215 11.4079 13.4552
779 1 1 0 1 -2.38609 17.7728 16.6278
780 1 1 0 1 -3.74334 15.3931 10.9542
781 1 1 0 1 3.26703 15.9256 18.1526
782 1 1 0 1 -5.57983 17.8183 15.5514
783 1 1 0 1 -4.40656 15.4611 9.79191
784 1 1 0 1 -2.20894 16.804 23.4594
785 1 1 0 1 -5.74413 22.8902 17.1799
786 1 1 0 1 -2.94796 11.7183 18.7323
787 1 1 0 1 5.72617 12.5459 22.9637
788 1 1 0 1 -9.86446 17.5122 14.0191
789 1 1 0 1 -4.55692 18.2599 20.522
790 1 1 0 1 -1.04217 12.3703 24.1757
791 1 1 0 1 -3.9278 13.1918 20.1068
792 1 1 0 1 -1.17141 8.84029 23.0202
793 1 1 0 1 -7.74011 15.342 4.14985
794 1 1 0 1 0.703588 19.4282 4.96798
795 1 1 0 1 0.855483 22.2181 -3.10961
796 1 1 0 1 -0.367265 16.338 8.34662
797 1 1 0 1 -3.67171 20.7782 1.35976
798 1 1 0 1 -0.558185 14.736 0.899493
799 1 1 0 1 -1.3094 13.0171 9.37744
800 1 1 0 1 5.07049 6.69316 1.30361
801 1 1 0 1 6.34006 14.5954 13.2312
802 1 1 0 1 -6.83792 20.1552 11.3267
803 1 1 0 1 -0.0301533 16.162 17.7112
804 1 1 0 1 -2.23146 13.5719 14.7582
805 1 1 0 1 -5.90336 16.1598 18.8384
806 1 1 0 1 -0.86216 4.52698 6.42509
807 1 1 0 1 -1.70761 17.4107 17.5794
808 1 1 0 1 1.23 19.216 10.2316
809 1 1 0 1 -5.98807 17.8177 13.2815
810 1 1 0 1 -0.609314 16.3126 20.8334