ITEM: TIMESTEP
8000
ITEM: NUMBER OF ATOMS
6752
ITEM: BOX BOUNDS pp pp pp
0.0000000000000000e+00 2.2000000000000000e+01
0.0000000000000000e+00 2.2000000000000000e+01
0.0000000000000000e+00 2.2000000000000000e+01
ITEM: ATOMS id mol type q mass xu yu zu
1 1 1 0 1 -4.83935 -5.50272 -2.59177
2 1 1 0 1 -4.64487 0.974539 1.12384
3 1 1 0 1 -1.93278 3.16603 4.6012
4 1 1 0 1 -5.674 -2.15633 8.43941
5 1 1 0 1 -1.1185 3.12186 3.86371
6 1 1 0 1 -2.02837 1.33583 8.64536
7 1 1 0 1 -5.45228 7.4005 6.58465
8 1 1 0 1 -1.79505 -3.63033 9.96943
9 1 1 0 1 -0.32775 1.30826 7.56937
10 1 1 0 1 -6.69258 3.46739 6.62876
11 1 1 0 1 -5.01101 2.23348 6.28977
12 1 1 0 1 -4.54032 -2.65602 11.9619
13 1 1 0 1 -1.44515 1.31476 13.3536
14 1 1 0 1 -2.28799 7.14188 12.9345
15 1 1 0 1 -8.8216 4.87037 14.7584
16 1 1 0 1 -7.30599 -4.15913 14.9591
17 1 1 0 1 0.956631 0.830255 15.5337
18 1 1 0 1 -1.97293 3.81083 19.0286
19 1 1 0 1 -2.86854 2.59566 20.3772
20 1 1 0 1 -2.13628 -1.84755 17.3537
21 1 1 0 1 -4.48438 4.74356 19.1181
22 1 1 0 1 -6.49038 8.81842 18.2628
23 1 1 0 1 -3.57137 3.71204 4.47611
24 1 1 0 1 -5.21391 1.68509 2.45344
25 1 1 0 1 -4.42528 -1.38959 -2.72954
26 1 1 0 1 0.203377 0.1291 5.77767
27 1 1 0 1 -3.46988 0.174274 7.35292
28 1 1 0 1 -4.53716 1.58348 3.27088
29 1 1 0 1 -3.63875 0.519707 12.6539
30 1 1 0 1 -1.49563 -1.19243 8.00015
31 1 1 0 1 -4.32882 7.92387 12.5166
32 1 1 0 1 -5.97771 -2.95026 7.82916
33 1 1 0 1 -3.76266 1.73964 14.2635
34 1 1 0 1 -0.602026 5.06526 10.5117
35 1 1 0 1 -4.66763 1.73899 14.8594
36 1 1 0 1 -1.00508 1.93003 6.91058
37 1 1 0 1 -7.28544 0.312413 12.8359
38 1 1 0 1 -2.31169 0.841428 16.8292
39 1 1 0 1 0.374907 1.38765 13.8032
40 1 1 0 1 -2.92497 6.65158 23.5198
41 1 1 0 1 -5.9497 2.3413 16.2206
42 1 1 0 1 -8.54904 3.33869 23.1459
43 1 1 0 1 -1.80053 6.95657 22.7586
44 1 1 0 1 -3.11432 6.10237 17.8115
45 1 1 0 1 -9.05279 6.20546 6.71595
46 1 1 0 1 -10.322 7.97028 8.10578
47 1 1 0 1 -2.92037 1.50604 -2.38646
48 1 1 0 1 -9.43936 3.30749 4.34542
49 1 1 0 1 0.205505 7.94326 2.09714
50 1 1 0 1 -5.82333 5.96716 1.05235
51 1 1 0 1 -4.0844 5.86659 6.42629
52 1 1 0 1 -0.887226 6.04828 14.1247
53 1 1 0 1 -3.50348 1.06045 5.46588
54 1 1 0 1 -2.97797 1.23289 13.8716
55 1 1 0 1 -6.00664 4.27278 10.0662
56 1 1 0 1 -1.42972 0.545176 12.5735
57 1 1 0 1 -4.8723 9.86065 11.6939
58 1 1 0 1 -0.680213 7.41881 16.523
59 1 1 0 1 -2.67449 1.80035 16.4277
60 1 1 0 1 0.298746 1.76652 18.652
61 1 1 0 1 -4.96145 5.32779 12.7779
62 1 1 0 1 -0.790946 1.61714 18.1785
63 1 1 0 1 -3.41205 14.6358 10.4948
64 1 1 0 1 -5.75909 2.88681 18.398
65 1 1 0 1 -7.39336 4.81446 21.1264
66 1 1 0 1 -7.24898 2.4252 25.268
67 1 1 0 1 -7.71763 4.55393 0.982965
68 1 1 0 1 -4.04343 4.59446 -5.96831
69 1 1 0 1 -1.30259 5.98142 -0.762706
70 1 1 0 1 -3.97862 5.24402 5.38604
71 1 1 0 1 -0.0950001 4.43373 5.07991
72 1 1 0 1 -9.68306 5.45424 4.4633
73 1 1 0 1 2.74475 3.23637 8.78069
74 1 1 0 1 -7.37924 2.2419 7.57354
75 1 1 0 1 -5.0788 2.70613 7.98662
76 1 1 0 1 -4.18738 2.77921 7.13794
77 1 1 0 1 -2.97771 -2.70829 10.1561
78 1 1 0 1 -3.12173 5.91615 14.3392
79 1 1 0 1 -3.50832 0.166098 9.65119
80 1 1 0 1 1.06221 2.34584 9.99465
81 1 1 0 1 -1.63839 6.23926 13.2982
82 1 1 0 1 -0.37045 1.10723 15.9268
83 1 1 0 1 -2.44023 3.93923 17.0108
84 1 1 0 1 -2.39327 2.88085 14.7743
85 1 1 0 1 -2.25599 2.91826 24.5451
86 1 1 0 1 -2.84569 4.70568 19.6678
87 1 1 0 1 -7.03114 -0.631156 25.4992
88 1 1 0 1 -2.51062 7.78046 22.2323
89 1 1 0 1 -2.08172 6.44768 -0.397677
90 1 1 0 1 -0.953304 8.39196 7.58573
91 1 1 0 1 -4.40998 2.3185 3.91979
92 1 1 0 1 -3.77004 7.98251 7.94554
93 1 1 0 1 -7.37996 8.23452 7.83506
94 1 1 0 1 -5.1056 -0.404289 6.83984
95 1 1 0 1 -4.41621 8.46735 9.37057
96 1 1 0 1 -0.385884 4.27883 12.3224
97 1 1 0 1 -2.14723 7.46403 10.5728
98 1 1 0 1 0.453694 6.12927 4.10852
99 1 1 0 1 -4.30511 9.76707 12.8897
100 1 1 0 1 -1.24754 1.80347 9.05856
101 1 1 0 1 -5.37932 4.19539 12.6263
102 1 1 0 1 -3.69982 7.05976 15.1379
103 1 1 0 1 -8.65197 14.204 11.9109
104 1 1 0 1 -4.33899 7.99526 15.9073
105 1 1 0 1 -2.18179 9.57372 11.156
106 1 1 0 1 -1.45697 -0.11618 19.121
107 1 1 0 1 -5.48183 10.7152 19.3213
108 1 1 0 1 -2.63913 6.50803 20.4754
109 1 1 0 1 -4.70543 9.32714 18.6016
110 1 1 0 1 -3.5031 7.45528 22.4517
111 1 1 0 1 -6.31548 1.4107 2.6524
112 1 1 0 1 -3.1883 5.62151 0.182063
113 1 1 0 1 -1.35064 14.1647 8.07056
114 1 1 0 1 -4.65106 3.40453 4.24
115 1 1 0 1 -1.29345 8.7868 2.26941
116 1 1 0 1 -3.78511 10.2377 1.19139
117 1 1 0 1 2.07879 9.21747 8.27214
118 1 1 0 1 -3.49173 3.99443 8.02383
119 1 1 0 1 -2.18239 0.716226 9.71979
120 1 1 0 1 -0.544646 1.41898 9.8196
121 1 1 0 1 -1.53131 3.7607 11.6515
122 1 1 0 1 -5.42433 6.5866 10.5654
123 1 1 0 1 -3.56893 7.23376 13.9828
124 1 1 0 1 -3.62283 10.3917 13.871
125 1 1 0 1 -8.89625 10.8117 9.49105
126 1 1 0 1 -5.9755 7.2296 16.7249
127 1 1 0 1 -2.40334 7.00108 16.0926
128 1 1 0 1 -6.40951 11.7652 15.4957
129 1 1 0 1 -0.868585 6.08734 19.2575
130 1 1 0 1 -5.01944 4.28727 20.0048
131 1 1 0 1 -3.60015 2.16273 17.5767
132 1 1 0 1 -5.32862 2.68338 25.6085
133 1 1 0 1 -4.04723 4.13496 -0.17681
134 1 1 0 1 -7.52552 5.86685 4.64823
135 1 1 0 1 -5.80676 3.50852 4.7361
136 1 1 0 1 -2.38426 10.1567 2.27074
137 1 1 0 1 -7.38539 9.01264 7.1503
138 1 1 0 1 -6.66431 9.33295 7.75221
139 1 1 0 1 -2.45863 7.17646 6.04113
140 1 1 0 1 -3.56773 7.41275 1.87566
141 1 1 0 1 7.39733 3.99063 2.21059
142 1 1 0 1 -2.67232 3.06116 12.4819
143 1 1 0 1 -1.66205 4.60442 11.1197
144 1 1 0 1 -1.64111 4.20514 8.96232
145 1 1 0 1 -3.20419 7.94889 16.038
146 1 1 0 1 -3.44087 11.7289 18.4675
147 1 1 0 1 -4.15181 9.82702 15.3613
148 1 1 0 1 -6.25488 10.6473 12.9774
149 1 1 0 1 -3.25652 12.8973 18.3692
150 1 1 0 1 -6.05377 7.95676 17.5327
151 1 1 0 1 -2.91308 4.41665 22.2714
152 1 1 0 1 -4.44968 5.18624 20.1585
153 1 1 0 1 -2.09219 6.936 17.3093
154 1 1 0 1 -2.94122 6.98614 25.7478
155 1 1 0 1 -2.37128 4.59129 -3.66511
156 1 1 0 1 -4.17206 3.4546 3.38135
157 1 1 0 1 -1.27835 6.01211 2.59752
158 1 1 0 1 -0.257871 8.77935 4.36274
159 1 1 0 1 -3.5993 9.21035 0.917112
160 1 1 0 1 -8.44185 3.4775 3.91386
161 1 1 0 1 0.417375 9.42919 3.90771
162 1 1 0 1 -3.97645 7.49703 3.58138
163 1 1 0 1 0.842776 7.55015 9.46749
164 1 1 0 1 -5.39359 6.97591 12.9899
165 1 1 0 1 -1.74867 10.7721 6.68413
166 1 1 0 1 0.159141 9.71852 14.5151
167 1 1 0 1 -3.78382 11.6629 13.3117
168 1 1 0 1 -1.47487 10.8426 17.4245
169 1 1 0 1 -7.5849 9.05701 16.8522
170 1 1 0 1 -0.130555 8.24147 19.8256
171 1 1 0 1 0.0119168 9.76377 16.0422
172 1 1 0 1 -1.97574 7.53114 21.095
173 1 1 0 1 -1.88968 6.02116 15.913
174 1 1 0 1 -2.17001 2.01335 23.8231
175 1 1 0 1 -3.85919 8.39942 22.3476
176 1 1 0 1 -1.16281 9.44255 22.1105
177 1 1 0 1 -2.83046 4.21458 2.69179
178 1 1 0 1 0.455848 15.0532 4.66726
179 1 1 0 1 -4.59115 13.8814 2.82214
180 1 1 0 1 -2.07827 8.04553 2.56501
181 1 1 0 1 -2.56073 10.1305 6.3724
182 1 1 0 1 -4.40274 14.1033 5.36877
183 1 1 0 1 -1.02134 7.80394 4.38597
184 1 1 0 1 -1.76477 9.62114 7.18605
185 1 1 0 1 -3.97409 5.59744 9.61618
186 1 1 0 1 -10.1636 11.6341 8.00905
187 1 1 0 1 -7.41648 11.3693 9.28095
188 1 1 0 1 -1.23251 2.87288 8.78685
189 1 1 0 1 0.243097 12.0973 13.2171
190 1 1 0 1 -1.80383 8.64698 17.5657
191 1 1 0 1 -2.55941 12.3484 17.5659
192 1 1 0 1 -1.3261 11.0689 19.7573
193 1 1 0 1 -3.49322 6.71421 16.4175
194 1 1 0 1 -1.96346 11.9445 21.0102
195 1 1 0 1 -2.82813 8.78542 17.7849
196 1 1 0 1 -2.30156 2.45398 19.4767
197 1 1 0 1 -3.3128 7.2193 18.9026
198 1 1 0 1 1.1088 9.1716 21.9946
199 1 1 0 1 1.46496 8.32033 1.50026
200 1 1 0 1 -0.100713 7.97895 3.48871
201 1 1 0 1 -4.23281 8.56931 1.59171
202 1 1 0 1 -4.26283 7.25019 2.58816
203 1 1 0 1 -6.36231 10.8965 1.96338
204 1 1 0 1 -2.3561 10.6338 3.89028
205 1 1 0 1 -2.60525 9.07071 6.34489
206 1 1 0 1 2.9132 8.98558 6.28477
207 1 1 0 1 -5.38578 4.56888 4.9716
208 1 1 0 1 -4.17058 8.72973 13.2054
209 1 1 0 1 -4.90667 6.11121 9.56983
210 1 1 0 1 -1.935 9.02494 14.7332
211 1 1 0 1 -0.851794 8.5579 9.80299
212 1 1 0 1 -3.57785 9.86275 12.2345
213 1 1 0 1 3.33826 16.0854 17.6286
214 1 1 0 1 -5.4079 13.5827 19.36
215 1 1 0 1 -4.84709 11.523 17.2618
216 1 1 0 1 -3.49005 9.83592 20.639
217 1 1 0 1 -5.78977 11.6364 24.8467
218 1 1 0 1 -2.466 9.63489 20.247
219 1 1 0 1 0.500377 10.8403 21.8346
220 1 1 0 1 -1.52538 10.1428 20.4292
221 1 1 0 1 1.89029 11.2316 -4.38681
222 1 1 0 1 -4.4779 9.87227 2.43567
223 1 1 0 1 -5.93419 13.1199 4.39161
224 1 1 0 1 -4.01846 12.2931 4.28671
225 1 1 0 1 -7.74966 15.506 5.07093
226 1 1 0 1 -9.31973 13.6284 7.0668
227 1 1 0 1 -9.37305 12.2029 5.8746
228 1 1 0 1 -2.52506 13.4887 6.07785
229 1 1 0 1 -1.14391 8.47922 8.7426
230 1 1 0 1 -3.49918 12.0098 5.31767
231 1 1 0 1 -3.01131 10.5021 12.7594
232 1 1 0 1 -0.554827 3.65424 10.9186
233 1 1 0 1 -3.16404 11.5178 12.5289
234 1 1 0 1 -7.63757 10.0935 15.7331
235 1 1 0 1 0.49862 12.1695 17.9786
236 1 1 0 1 -8.27142 13.0326 15.7721
237 1 1 0 1 -4.68003 14.4804 19.1897
238 1 1 0 1 -3.74969 13.893 13.6163
239 1 1 0 1 -2.15257 13.402 17.5061
240 1 1 0 1 -3.61472 11.9622 17.3521
241 1 1 0 1 -2.32442 11.9366 18.4846
242 1 1 0 1 -1.30645 7.87189 22.1301
243 1 1 0 1 -2.64388 9.64824 0.730808
244 1 1 0 1 -3.24093 12.8116 -0.198119
245 1 1 0 1 -6.95471 13.3922 1.21534
246 1 1 0 1 -3.21129 12.8668 3.85921
247 1 1 0 1 -5.22572 11.2888 5.18495
248 1 1 0 1 -1.51102 6.11817 7.40924
249 1 1 0 1 -4.74469 11.305 3.2641
250 1 1 0 1 0.0377796 8.93058 9.49797
251 1 1 0 1 -4.21195 10.1059 7.39586
252 1 1 0 1 1.31704 6.35854 8.10831
253 1 1 0 1 -0.273363 3.15767 12.6125
254 1 1 0 1 1.29993 11.281 10.9924
255 1 1 0 1 -5.51131 9.06957 11.243
256 1 1 0 1 -9.3076 15.6565 13.8438
257 1 1 0 1 -1.30315 15.1085 17.1187
258 1 1 0 1 -0.820346 11.9754 12.6213
259 1 1 0 1 0.774478 14.0169 16.6709
260 1 1 0 1 -1.14018 11.3525 13.5298
261 1 1 0 1 -5.61837 9.63967 18.0918
262 1 1 0 1 -3.87329 14.533 22.9232
263 1 1 0 1 -0.855606 9.77909 16.4947
264 1 1 0 1 1.79073 18.2239 21.7184
265 1 1 0 1 -0.891512 13.8008 3.60873
266 1 1 0 1 2.35777 16.3484 2.52518
267 1 1 0 1 -3.17384 13.3245 2.36415
268 1 1 0 1 -7.37479 11.107 -0.7093
269 1 1 0 1 -0.651353 7.37979 8.73054
270 1 1 0 1 -2.01777 12.8061 0.43239
271 1 1 0 1 -5.30534 9.84215 6.11971
272 1 1 0 1 -6.75186 14.2457 7.13823
273 1 1 0 1 -5.75731 13.1489 6.39889
274 1 1 0 1 -4.47533 9.75242 9.75839
275 1 1 0 1 -8.08836 4.46199 10.611
276 1 1 0 1 -4.32354 10.6554 11.7986
277 1 1 0 1 -4.25655 11.9013 7.94363
278 1 1 0 1 -2.08955 15.3163 11.1949
279 1 1 0 1 -3.61487 14.4099 11.9998
280 1 1 0 1 -7.03911 15.9261 5.68383
281 1 1 0 1 -0.609264 14.965 18.0776
282 1 1 0 1 -3.86508 12.679 9.45546
283 1 1 0 1 1.07395 17.345 16.1931
284 1 1 0 1 -1.21877 13.0501 18.0607
285 1 1 0 1 -3.32094 9.83743 19.4963
286 1 1 0 1 -5.83652 14.1505 20.859
287 1 1 0 1 -2.53338 16.4182 0.836094
288 1 1 0 1 -2.63007 11.7868 3.2741
289 1 1 0 1 -6.89347 6.0968 6.57477
290 1 1 0 1 -3.07792 7.99576 3.4555
291 1 1 0 1 -7.81107 8.84799 14.7684
292 1 1 0 1 -5.27415 15.7438 7.91576
293 1 1 0 1 0.144134 11.5462 5.78353
294 1 1 0 1 -5.70465 11.5871 8.54176
295 1 1 0 1 -3.58477 11.0347 8.27962
296 1 1 0 1 -4.74318 11.9189 13.9951
297 1 1 0 1 -3.36208 15.2398 9.46541
298 1 1 0 1 -4.3025 11.1124 14.484
299 1 1 0 1 0.443889 17.9625 13.3063
300 1 1 0 1 0.927623 14.3663 18.7036
301 1 1 0 1 -6.70261 15.3451 13.9134
302 1 1 0 1 -2.71074 14.3221 13.2884
303 1 1 0 1 -3.9023 15.0898 15.2059
304 1 1 0 1 -3.34613 11.9509 8.83604
305 1 1 0 1 0.833881 10.6314 14.7208
306 1 1 0 1 -1.02099 18.456 23.0614
307 1 1 0 1 -2.52955 12.6428 15.5868
308 1 1 0 1 0.776328 18.5425 29.3095
309 1 1 0 1 -2.3692 12.8315 1.83927
310 1 1 0 1 -5.07427 10.98 2.07362
311 1 1 0 1 -6.54225 15.5936 1.25295
312 1 1 0 1 -9.31648 11.2392 6.43956
313 1 1 0 1 -5.60064 16.2639 3.9131
314 1 1 0 1 -1.13666 9.07463 5.03964
315 1 1 0 1 -1.56597 10.9416 8.29795
316 1 1 0 1 -3.78541 15.3349 2.63939
317 1 1 0 1 -5.93803 15.8266 5.41749
318 1 1 0 1 -1.96829 15.0122 9.56115
319 1 1 0 1 -4.46733 13.26 8.58529
320 1 1 0 1 2.14772 20.2587 13.8791
321 1 1 0 1 -0.891786 12.2395 15.2423
322 1 1 0 1 -1.42899 8.14389 12.1907
323 1 1 0 1 -0.933878 11.8293 6.60966
324 1 1 0 1 -5.7243 10.5836 8.34307
325 1 1 0 1 -4.1144 15.2568 12.6932
326 1 1 0 1 -8.19801 17.6707 19.8514
327 1 1 0 1 -2.15329 15.793 19.1823
328 1 1 0 1 -4.13164 15.0014 19.9412
329 1 1 0 1 -1.44233 14.0044 19.0092
330 1 1 0 1 -2.57396 14.1782 23.4154
331 1 1 0 1 -2.0905 19.463 1.89423
332 1 1 0 1 1.82679 16.6407 3.74359
333 1 1 0 1 -0.00255828 14.6846 2.91404
334 1 1 0 1 -5.02102 17.5966 2.54942
335 1 1 0 1 -2.88258 14.1207 6.85434
336 1 1 0 1 -8.7866 12.0221 3.97379
337 1 1 0 1 -3.3456 9.62666 7.03216
338 1 1 0 1 -3.4865 12.8191 8.4477
339 1 1 0 1 -7.03595 13.6354 5.94021
340 1 1 0 1 2.60353 14.7344 8.85677
341 1 1 0 1 -5.72384 10.3973 9.41794
342 1 1 0 1 -5.84657 15.2343 14.6528
343 1 1 0 1 -6.62229 13.3136 7.25721
344 1 1 0 1 -7.67934 15.0707 13.2217
345 1 1 0 1 -6.28361 12.9105 16.6252
346 1 1 0 1 5.12816 17.0237 16.2537
347 1 1 0 1 -1.8766 14.8869 18.3071
348 1 1 0 1 -2.40966 14.6173 14.8023
349 1 1 0 1 -0.185478 16.6065 14.9454
350 1 1 0 1 -0.442641 12.4554 18.4318
351 1 1 0 1 -8.08247 15.7781 15.4427
352 1 1 0 1 -1.49987 17.4306 22.4963
353 1 1 0 1 -6.24217 15.4857 4.37458
354 1 1 0 1 1.93306 18.0742 4.20287
355 1 1 0 1 -3.84019 12.7923 7.38127
356 1 1 0 1 -6.03244 13.7585 5.31448
357 1 1 0 1 0.451232 17.2755 3.36013
358 1 1 0 1 -4.31867 14.5007 3.92403
359 1 1 0 1 -4.27624 15.9167 5.05709
360 1 1 0 1 -0.112754 15.3233 9.44308
361 1 1 0 1 -7.25873 14.6598 10.5752
362 1 1 0 1 -0.965799 15.5111 12.2299
363 1 1 0 1 -1.82421 15.9243 10.4304
364 1 1 0 1 -0.13106 17.1713 12.0224
365 1 1 0 1 -5.9198 8.32014 4.2622
366 1 1 0 1 -4.85753 14.7024 14.4553
367 1 1 0 1 -2.95904 12.0942 10.0625
368 1 1 0 1 -2.26683 16.1494 16.3463
369 1 1 0 1 -8.1575 13.3173 13.8254
370 1 1 0 1 -2.9772 8.59938 9.44913
371 1 1 0 1 -1.02374 18.4907 21.7679
372 1 1 0 1 -3.20639 13.5853 17.3853
373 1 1 0 1 -7.2864 13.532 21.6223
374 1 1 0 1 -4.48682 15.9362 25.6681
375 1 1 0 1 -4.98928 7.60337 1.90154
376 1 1 0 1 -5.64798 8.83515 6.09646
377 1 1 0 1 -5.40711 16.713 2.92471
378 1 1 0 1 -4.16945 16.8719 4.34326
379 1 1 0 1 -4.15622 13.9204 0.1481
380 1 1 0 1 -6.28592 13.9874 1.74185
381 1 1 0 1 -3.21326 16.7745 5.5377
382 1 1 0 1 -8.87695 18.0067 12.1474
383 1 1 0 1 -1.98626 17.0729 10.4514
384 1 1 0 1 -0.0654631 15.9228 11.6198
385 1 1 0 1 -2.50592 16.8145 13.202
386 1 1 0 1 -2.94147 13.5161 12.3921
387 1 1 0 1 -7.07206 13.7134 14.9597
388 1 1 0 1 -4.12845 15.6821 17.808
389 1 1 0 1 -5.4899 13.7446 14.64
390 1 1 0 1 -1.63407 16.064 17.5531
391 1 1 0 1 -5.42918 15.8622 16.4206
392 1 1 0 1 -5.5809 15.7344 11.45
393 1 1 0 1 -2.61734 8.82102 16.3411
394 1 1 0 1 -5.49634 17.1785 19.835
395 1 1 0 1 -6.87669 13.3563 13.8864
396 1 1 0 1 -4.04562 15.1482 22.0362
397 1 1 0 1 -0.254484 17.7706 0.514499
398 1 1 0 1 -3.12283 22.004 0.536852
399 1 1 0 1 -4.21136 14.3915 1.93513
400 1 1 0 1 -4.62066 10.108 3.57755
401 1 1 0 1 -0.123569 13.7463 7.09732
402 1 1 0 1 -2.70107 17.6729 5.78297
403 1 1 0 1 -0.111479 14.8462 8.61521
404 1 1 0 1 -5.23279 19.2553 4.07964
405 1 1 0 1 -7.46871 16.1564 9.1493
406 1 1 0 1 -2.25778 15.5908 7.07605
407 1 1 0 1 -5.85165 16.9811 8.03401
408 1 1 0 1 -8.45275 16.1128 9.20342
409 1 1 0 1 -4.801 15.1767 16.9848
410 1 1 0 1 -7.76756 12.6063 14.5704
411 1 1 0 1 0.669646 18.3753 12.1504
412 1 1 0 1 -10.6503 16.4069 11.0912
413 1 1 0 1 -4.06989 18.409 20.0338
414 1 1 0 1 -5.06303 13.6187 17.7484
415 1 1 0 1 -1.19818 15.4892 18.8196
416 1 1 0 1 -3.64639 11.8627 20.9241
417 1 1 0 1 2.6463 22.6101 22.2745
418 1 1 0 1 -1.70786 16.5733 22.0703
419 1 1 0 1 -5.08285 19.6481 5.76186
420 1 1 0 1 -0.327715 24.1045 8.29573
421 1 1 0 1 -4.80275 17.7986 4.0581
422 1 1 0 1 -3.85509 12.7174 2.93274
423 1 1 0 1 0.577 20.1618 5.37727
424 1 1 0 1 -3.80725 19.7269 7.233
425 1 1 0 1 -5.20597 16.7369 5.91776
426 1 1 0 1 -0.967341 21.7092 4.7608
427 1 1 0 1 -2.30833 18.1997 8.13192
428 1 1 0 1 2.06338 22.6763 5.96933
429 1 1 0 1 -2.56307 24.912 11.4352
430 1 1 0 1 1.99636 17.7334 12.388
431 1 1 0 1 -6.91677 15.3582 15.0738
432 1 1 0 1 -1.39026 19.466 16.1843
433 1 1 0 1 -3.36495 16.1438 15.342
434 1 1 0 1 -3.85827 16.6285 14.0294
435 1 1 0 1 -3.64187 14.2302 19.0513
436 1 1 0 1 -6.34505 18.9567 16.8089
437 1 1 0 1 -0.330037 17.2894 16.8628
438 1 1 0 1 -2.3491 16.6912 18.2705
439 1 1 0 1 -2.76988 17.6758 19.5424
440 1 1 0 1 -2.88754 16.7373 24.7578
441 1 1 0 1 -5.32833 15.8986 1.49644
442 1 1 0 1 -1.87434 19.6532 5.81263
443 1 1 0 1 -5.57035 20.0023 0.468828
444 1 1 0 1 -2.03748 26.5489 1.04367
445 1 1 0 1 -4.21386 19.7839 3.47989
446 1 1 0 1 -2.63686 10.6844 11.5107
447 1 1 0 1 -6.52146 16.0754 8.61981
448 1 1 0 1 -6.9371 12.4137 7.6457
449 1 1 0 1 -4.67743 16.407 10.8743
450 1 1 0 1 0.965241 18.5555 15.3535
451 1 1 0 1 -4.60636 17.8291 8.75504
452 1 1 0 1 -5.39912 18.1513 16.533
453 1 1 0 1 -6.55868 14.4134 14.6142
454 1 1 0 1 -1.469 21.8612 16.5651
455 1 1 0 1 -7.67972 10.4119 11.4862
456 1 1 0 1 -6.79882 13.7263 12.2929
457 1 1 0 1 -5.48528 21.4442 14.9319
458 1 1 0 1 -9.29517 18.2488 18.0143
459 1 1 0 1 -3.42881 18.3343 18.0253
460 1 1 0 1 -3.54084 14.2656 20.4958
461 1 1 0 1 -4.53375 20.5007 12.6159
462 1 1 0 1 -0.00805749 20.7181 17.8949
463 1 1 0 1 -2.46198 22.781 -6.15764
464 1 1 0 1 -0.0762385 20.0837 1.46217
465 1 1 0 1 2.23665 26.1723 4.19326
466 1 1 0 1 0.0798313 23.921 5.42943
467 1 1 0 1 -6.14737 18.0452 8.36604
468 1 1 0 1 -4.23502 21.9016 5.50115
469 1 1 0 1 -4.1043 16.8878 10.1649
470 1 1 0 1 -4.15614 21.3594 4.62125
471 1 1 0 1 -4.52118 16.6536 7.81024
472 1 1 0 1 -0.470057 27.1774 6.8511
473 1 1 0 1 -6.29161 18.244 13.1052
474 1 1 0 1 -3.62201 17.1637 12.8778
475 1 1 0 1 -2.24271 20.9226 14.2076
476 1 1 0 1 0.803795 21.2977 17.2649
477 1 1 0 1 -2.63192 21.9368 16.2846
478 1 1 0 1 -2.77705 17.1477 14.6313
479 1 1 0 1 0.356059 25.1797 15.0253
480 1 1 0 1 -1.46649 22.9582 16.0975
481 1 1 0 1 -0.141203 19.238 18.4473
482 1 1 0 1 -4.48901 25.8787 16.8946
483 1 1 0 1 -0.15556 19.8779 20.3619
484 1 1 0 1 0.290817 20.2041 24.9144
485 1 1 0 1 -5.76269 -1.68417 2.42683
486 1 1 0 1 -2.50832 1.54208 -3.4278
487 1 1 0 1 -0.000475331 2.08161 2.22911
488 1 1 0 1 -0.474328 0.971113 1.9061
489 1 1 0 1 -3.77148 6.90718 8.29631
490 1 1 0 1 -2.58765 1.10588 3.27505
491 1 1 0 1 -1.3849 2.79284 11.0571
492 1 1 0 1 -2.59791 -3.82954 9.315
493 1 1 0 1 -1.69767 -0.920422 9.96088
494 1 1 0 1 -4.36355 -2.50275 1.92685
495 1 1 0 1 -4.92882 0.235255 13.3187
496 1 1 0 1 1.40392 1.00665 14.0496
497 1 1 0 1 -0.721953 -0.536691 10.7107
498 1 1 0 1 -2.43188 -1.43581 15.7287
499 1 1 0 1 -3.95077 -1.30176 13.4464
500 1 1 0 1 -3.40634 -4.10934 16.9503
501 1 1 0 1 1.76075 -2.89748 11.8234
502 1 1 0 1 -0.933629 -3.58423 16.167
503 1 1 0 1 -2.86433 1.40013 17.4659
504 1 1 0 1 -6.17412 -2.43224 15.7955
505 1 1 0 1 -3.78251 -1.80611 14.7325
506 1 1 0 1 -6.11998 1.55478 21.6958
507 1 1 0 1 -3.43068 1.85948 -0.531976
508 1 1 0 1 -2.40786 1.23777 0.993997
509 1 1 0 1 -2.34497 4.0168 -1.58933
510 1 1 0 1 -4.48266 0.242932 0.354932
511 1 1 0 1 0.215596 4.1918 1.04181
512 1 1 0 1 0.320841 6.89258 7.44884
513 1 1 0 1 -3.92743 -0.899218 6.05367
514 1 1 0 1 -2.90868 0.588869 4.47791
515 1 1 0 1 2.20569 4.90768 5.12871
516 1 1 0 1 -4.71996 0.479691 7.77425
517 1 1 0 1 -2.49298 1.45702 7.57121
518 1 1 0 1 0.617677 1.5219 7.35497
519 1 1 0 1 -3.54452 1.92537 15.424
520 1 1 0 1 -2.00886 -1.96198 12.5811
521 1 1 0 1 0.307592 1.41242 12.724
522 1 1 0 1 -1.55696 3.88659 13.7383
523 1 1 0 1 -1.24646 1.40761 15.1956
524 1 1 0 1 -0.834565 0.829297 17.1782
525 1 1 0 1 -5.93889 2.76725 22.2725
526 1 1 0 1 0.773079 -2.41812 18.9673
527 1 1 0 1 0.683698 4.15091 19.9847
528 1 1 0 1 0.629992 5.17711 24.1568
529 1 1 0 1 1.50017 8.12928 2.79319
530 1 1 0 1 -2.90544 -1.65779 -2.3283
531 1 1 0 1 -2.19576 5.58613 0.461308
532 1 1 0 1 -1.98273 -3.69273 -2.0879
533 1 1 0 1 -1.4697 3.36169 0.582958
534 1 1 0 1 -1.15011 2.51529 5.93713
535 1 1 0 1 -0.00411054 3.52926 4.61918
536 1 1 0 1 -0.907376 5.66371 3.97616
537 1 1 0 1 -2.58221 1.96789 9.73121
538 1 1 0 1 -2.77033 -0.869315 10.3459
539 1 1 0 1 -3.60259 6.28102 13.2063
540 1 1 0 1 -0.353737 1.29395 11.9615
541 1 1 0 1 -6.25764 7.17413 14.5818
542 1 1 0 1 -1.31546 5.53472 15.0521
543 1 1 0 1 -5.7438 4.75975 16.4303
544 1 1 0 1 2.44034 2.98069 14.3995
545 1 1 0 1 -1.48694 4.36686 14.8666
546 1 1 0 1 0.881932 -0.250948 15.3765
547 1 1 0 1 -5.15155 2.16767 18.8872
548 1 1 0 1 -3.611 4.57451 23.181
549 1 1 0 1 0.130144 5.0663 21.7646
550 1 1 0 1 -0.966206 0.83274 22.6763
551 1 1 0 1 -1.68889 7.60761 3.44475
552 1 1 0 1 -3.87147 6.82974 -2.02805
553 1 1 0 1 -1.84628 4.59935 2.39164
554 1 1 0 1 -0.755673 5.01924 -0.999996
555 1 1 0 1 -2.33291 6.10915 4.37598
556 1 1 0 1 -3.77251 5.65292 7.46782
557 1 1 0 1 -2.58848 3.10321 7.5193
558 1 1 0 1 -1.99481 3.17404 9.6749
559 1 1 0 1 -1.01728 2.27208 9.96123
560 1 1 0 1 -2.8758 0.55723 6.42739
561 1 1 0 1 -2.51145 1.64471 15.0127
562 1 1 0 1 1.14685 3.25709 12.3994
563 1 1 0 1 -3.20667 4.87526 14.0287
564 1 1 0 1 -1.56089 -0.435691 11.6249
565 1 1 0 1 1.92355 5.16866 14.9
566 1 1 0 1 1.52969 3.54212 13.6005
567 1 1 0 1 0.646491 5.89899 16.9089
568 1 1 0 1 0.120271 6.27389 14.8991
569 1 1 0 1 -0.341426 3.38074 18.4021
570 1 1 0 1 -2.84437 3.00373 22.4533
571 1 1 0 1 2.49931 3.74374 19.8874
572 1 1 0 1 -0.0500012 4.19666 21.0537
573 1 1 0 1 1.76964 4.21854 -1.45973
574 1 1 0 1 -1.9491 4.58375 4.6948
575 1 1 0 1 -4.12464 -0.680821 0.955172
576 1 1 0 1 -3.46229 5.2746 2.52026
577 1 1 0 1 -2.81665 4.69946 6.09453
578 1 1 0 1 -4.59826 7.42732 7.2955
579 1 1 0 1 -0.620912 6.38145 8.6881
580 1 1 0 1 -4.33411 3.65138 8.69288
581 1 1 0 1 -4.32151 9.02691 12.0346
582 1 1 0 1 0.943934 3.99987 8.16824
583 1 1 0 1 -4.1728 3.41182 11.162
584 1 1 0 1 -2.63662 7.93685 12.2812
585 1 1 0 1 -4.41804 6.22897 14.9402
586 1 1 0 1 -1.88082 12.2899 16.6894
587 1 1 0 1 -5.24628 10.6637 14.9747
588 1 1 0 1 -5.11966 6.21711 15.8289
589 1 1 0 1 -4.49773 3.19658 20.6223
590 1 1 0 1 -0.671787 4.38622 20.1076
591 1 1 0 1 -2.81023 5.64861 15.4153
592 1 1 0 1 -3.17816 2.38792 24.6224
593 1 1 0 1 -1.87558 2.12751 15.6486
594 1 1 0 1 -5.03263 0.179385 21.0428
595 1 1 0 1 -0.853432 2.34431 -1.86261
596 1 1 0 1 -4.49596 6.18118 2.61924
597 1 1 0 1 -5.37934 1.05337 5.50559
598 1 1 0 1 2.2634 2.45144 1.46367
599 1 1 0 1 3.41924 5.86127 3.72938
600 1 1 0 1 0.173886 8.06119 -0.0347505
601 1 1 0 1 -6.30979 5.95761 7.807
602 1 1 0 1 4.81021 5.33589 4.74127
603 1 1 0 1 2.97381 2.92191 11.5953
604 1 1 0 1 2.74006 6.75309 10.1911
605 1 1 0 1 1.96208 4.04332 10.7386
606 1 1 0 1 -3.10296 -1.05078 12.5374
607 1 1 0 1 -2.0753 10.1897 9.15196
608 1 1 0 1 -1.36304 1.56632 11.2043
609 1 1 0 1 1.67084 8.01851 12.9059
610 1 1 0 1 0.352138 7.28474 14.4128
611 1 1 0 1 -1.0629 2.62547 12.3536
612 1 1 0 1 -0.100998 4.6419 16.4205
613 1 1 0 1 -0.108686 3.17063 17.1984
614 1 1 0 1 -1.01681 3.121 21.3837
615 1 1 0 1 -4.63179 2.48183 21.6864
616 1 1 0 1 -2.03783 3.82987 15.72
617 1 1 0 1 0.756748 3.29404 2.86556
618 1 1 0 1 -4.09434 5.42659 -0.653075
619 1 1 0 1 -3.7502 10.9161 3.30077
620 1 1 0 1 1.6052 6.33612 5.04201
621 1 1 0 1 -2.55661 3.91836 5.44241
622 1 1 0 1 -4.05749 6.50692 5.39823
623 1 1 0 1 -6.06359 5.16927 1.93039
624 1 1 0 1 -0.761034 4.88135 2.88089
625 1 1 0 1 -3.31654 9.4099 9.92788
626 1 1 0 1 -3.39065 7.13512 12.5268
627 1 1 0 1 -5.73077 1.93453 15.2251
628 1 1 0 1 2.50194 3.71809 7.23618
629 1 1 0 1 -2.14102 8.58621 11.493
630 1 1 0 1 1.59347 10.4419 14.0735
631 1 1 0 1 -6.18438 11.5836 9.54475
632 1 1 0 1 2.37009 4.04906 14.6334
633 1 1 0 1 -9.03729 10.977 17.4813
634 1 1 0 1 -2.02214 6.34539 19.5781
635 1 1 0 1 -1.88429 8.82105 18.6103
636 1 1 0 1 -5.12844 3.89135 17.9416
637 1 1 0 1 -5.241 3.71164 24.7456
638 1 1 0 1 0.60525 7.02176 21.2743
639 1 1 0 1 -2.18642 2.28052 5.14703
640 1 1 0 1 -0.462926 7.43035 -1.00528
641 1 1 0 1 1.47586 7.0367 2.15695
642 1 1 0 1 -2.6129 6.17898 2.47651
643 1 1 0 1 -0.196313 11.0573 0.659676
644 1 1 0 1 -3.06243 5.75743 6.48815
645 1 1 0 1 -3.11013 6.60044 4.89013
646 1 1 0 1 1.96968 6.86202 7.55506
647 1 1 0 1 -2.86724 9.05227 1.59077
648 1 1 0 1 -5.96484 9.33469 9.76021
649 1 1 0 1 -1.01779 9.63741 8.22576
650 1 1 0 1 1.22081 7.93755 11.1754
651 1 1 0 1 -2.79098 10.2557 8.33538
652 1 1 0 1 -3.39868 10.9487 16.9692
653 1 1 0 1 -3.38632 14.8706 14.1623
654 1 1 0 1 1.49713 10.3231 19.7805
655 1 1 0 1 -3.73236 9.10622 17.0125
656 1 1 0 1 -2.97743 8.72412 18.8229
657 1 1 0 1 1.43209 5.0746 17.2561
658 1 1 0 1 3.29849 7.22651 22.2622
659 1 1 0 1 -2.33153 6.61771 15.1522
660 1 1 0 1 -0.529791 9.5036 20.6924
661 1 1 0 1 -2.51403 7.81478 1.41972
662 1 1 0 1 -1.90135 9.24803 -0.84287
663 1 1 0 1 -4.99378 3.19337 1.91574
664 1 1 0 1 -3.24442 7.58441 5.38209
665 1 1 0 1 -5.61321 4.37429 6.25892
666 1 1 0 1 -1.10199 7.25505 11.4194
667 1 1 0 1 -4.91203 4.43986 2.00007
668 1 1 0 1 -4.92004 4.7332 7.21592
669 1 1 0 1 1.38876 10.5854 6.43035
670 1 1 0 1 -1.04259 9.71524 9.38634
671 1 1 0 1 1.2723 3.2407 9.27971
672 1 1 0 1 -4.39182 12.5886 15.3785
673 1 1 0 1 -3.41896 11.9396 15.829
674 1 1 0 1 0.478031 7.85107 16.4452
675 1 1 0 1 -2.73666 9.52482 15.5922
676 1 1 0 1 -5.10702 10.3525 17.5415
677 1 1 0 1 -0.39101 12.5563 17.3616
678 1 1 0 1 2.18174 5.36672 19.1056
679 1 1 0 1 -0.440941 7.0836 19.2309
680 1 1 0 1 -1.45708 6.83039 14.1037
681 1 1 0 1 0.327343 10.3282 18.3151
682 1 1 0 1 0.230035 8.93966 21.2897
683 1 1 0 1 -1.19922 10.4407 2.7528
684 1 1 0 1 -1.00899 7.76701 2.17808
685 1 1 0 1 -2.01472 11.7542 9.07797
686 1 1 0 1 0.267548 7.90512 7.25374
687 1 1 0 1 -0.801294 17.7774 4.06107
688 1 1 0 1 -2.45229 13.799 7.82724
689 1 1 0 1 -1.6828 8.43605 6.75152
690 1 1 0 1 0.0930695 6.26311 10.7887
691 1 1 0 1 0.319998 4.45551 9.11046
692 1 1 0 1 -0.013582 8.65622 8.02242
693 1 1 0 1 -2.60347 6.13496 16.7376
694 1 1 0 1 -3.14416 13.0402 14.755
695 1 1 0 1 -0.760231 10.0069 15.2531
696 1 1 0 1 1.45587 8.55885 18.0388
697 1 1 0 1 -3.13116 9.8169 17.5576
698 1 1 0 1 -7.9715 10.3141 17.9204
699 1 1 0 1 -1.41921 12.1408 19.9567
700 1 1 0 1 -0.750179 14.0905 16.1765
701 1 1 0 1 -4.48481 10.5316 19.0555
702 1 1 0 1 -3.82301 7.30347 17.9317
703 1 1 0 1 -0.712752 10.2435 18.2374
704 1 1 0 1 -2.78537 19.1651 20.8638
705 1 1 0 1 -0.29953 11.0109 2.60426
706 1 1 0 1 -1.3876 9.7702 1.8274
707 1 1 0 1 -1.61312 16.3748 -1.10997
708 1 1 0 1 -0.83492 11.891 -1.36012
709 1 1 0 1 -4.44572 9.36424 5.64388
710 1 1 0 1 -1.15905 13.4307 7.34995
711 1 1 0 1 -0.594467 9.68595 7.1146
712 1 1 0 1 -4.07654 11.4941 6.96113
713 1 1 0 1 -0.275966 13.3032 5.89752
714 1 1 0 1 0.0316564 12.3168 6.50217
715 1 1 0 1 -5.64109 8.16862 14.7519
716 1 1 0 1 -4.63516 13.5828 16.8508
717 1 1 0 1 -2.60791 11.6556 15.0565
718 1 1 0 1 -0.0310507 11.0753 15.1847
719 1 1 0 1 -0.215984 9.66894 17.402
720 1 1 0 1 -0.278498 11.3743 17.5097
721 1 1 0 1 -1.15939 14.1099 18.0097
722 1 1 0 1 0.695201 16.5394 21.7574
723 1 1 0 1 -1.3513 7.92204 18.9231
724 1 1 0 1 0.846961 15.5062 17.7729
725 1 1 0 1 -1.30211 12.5757 21.7921
726 1 1 0 1 -1.22532 11.9373 22.9032
727 1 1 0 1 -0.481346 12.8226 1.60092
728 1 1 0 1 -1.55981 11.2136 -3.41728
729 1 1 0 1 -5.49043 10.7998 -0.340393
730 1 1 0 1 -0.416554 14.4274 1.59572
731 1 1 0 1 -0.316688 12.741 2.85245
732 1 1 0 1 -0.401581 9.35444 2.33181
733 1 1 0 1 -1.86913 7.02579 5.00409
734 1 1 0 1 -0.737631 10.7537 9.17143
735 1 1 0 1 -1.78738 11.8147 3.70304
736 1 1 0 1 -3.87332 13.5913 4.54311
737 1 1 0 1 -1.18601 8.53003 13.3347
738 1 1 0 1 4.98036 13.6461 9.73495
739 1 1 0 1 -3.19526 8.97741 12.8099
740 1 1 0 1 -1.49463 13.0461 16.151
741 1 1 0 1 -2.74847 9.93726 14.435
742 1 1 0 1 -0.705222 11.884 19.254
743 1 1 0 1 -0.0276303 11.3702 18.5088
744 1 1 0 1 -0.426668 11.7649 23.8532
745 1 1 0 1 1.40621 12.1798 21.1437
746 1 1 0 1 -2.55404 10.7815 20.8097
747 1 1 0 1 -0.182908 12.707 21.2622
748 1 1 0 1 -1.87501 13.482 20.3625
749 1 1 0 1 -1.52773 15.6238 6.34311
750 1 1 0 1 1.02246 10.3329 3.62903
751 1 1 0 1 -5.40976 12.8871 5.41749
752 1 1 0 1 -4.44583 16.4042 0.873875
753 1 1 0 1 0.714776 14.7811 7.90485
754 1 1 0 1 -1.79572 11.437 0.0963876
755 1 1 0 1 0.879363 13.8248 4.45672
756 1 1 0 1 -6.89518 14.4698 5.47941
757 1 1 0 1 -0.788453 10.6662 12.83
758 1 1 0 1 -2.8148 11.0279 8.99839
759 1 1 0 1 -3.91656 8.89676 11.0229
760 1 1 0 1 -0.665147 9.96849 13.8176
761 1 1 0 1 -0.585 13.283 14.1245
762 1 1 0 1 -1.74858 13.6319 15.0761
763 1 1 0 1 -1.93567 14.0159 14.0289
764 1 1 0 1 -1.98712 15.0039 13.7035
765 1 1 0 1 -1.35333 15.5802 20.0378
766 1 1 0 1 0.22387 11.5339 16.4126
767 1 1 0 1 -1.67471 15.293 21.8662
768 1 1 0 1 0.184518 12.8525 22.257
769 1 1 0 1 2.28382 11.7515 21.4275
770 1 1 0 1 -0.304019 15.6695 22.946
771 1 1 0 1 -0.294477 14.6718 0.533939
772 1 1 0 1 -2.78531 12.975 9.64576
773 1 1 0 1 -2.0585 12.6114 3.01687
774 1 1 0 1 0.469329 14.4158 9.51857
775 1 1 0 1 -2.28266 14.5092 2.90372
776 1 1 0 1 -0.51621 13.2061 9.18111
777 1 1 0 1 -4.08849 17.7229 6.43935
778 1 1 0 1 -3.31772 12.1933 6.59341
779 1 1 0 1 -0.270709 14.2396 13.0621
780 1 1 0 1 -0.748793 12.4842 11.644
781 1 1 0 1 1.45832 11.5966 14.8161
782 1 1 0 1 -2.07268 12.6558 14.6377
783 1 1 0 1 -3.60136 16.503 17.1396
784 1 1 0 1 -2.22405 15.8727 15.1845
785 1 1 0 1 -2.9585 13.9819 16.0319
786 1 1 0 1 -2.13604 14.3026 19.8223
787 1 1 0 1 3.4119 13.6328 17.7243
788 1 1 0 1 -5.58568 17.4542 13.2544
789 1 1 0 1 -2.57919 16.7928 17.1552
790 1 1 0 1 1.40319 13.6227 24.1065
791 1 1 0 1 0.154143 10.4815 16.9821
792 1 1 0 1 0.247491 11.4757 19.7047
793 1 1 0 1 -5.88659 12.9161 0.794419
794 1 1 0 1 2.50949 16.0872 4.50289
795 1 1 0 1 2.7921 17.2558 2.35081
796 1 1 0 1 0.559465 16.0576 3.96956
797 1 1 0 1 -2.36469 17.4605 4.82716
798 1 1 0 1 -4.05276 17.3923 5.16752
799 1 1 0 1 -3.16162 14.561 5.70117
800 1 1 0 1 0.643471 5.25117 4.80494
801 1 1 0 1 2.98417 12.4969 12.0158
802 1 1 0 1 -2.61059 17.9566 7.05595
803 1 1 0 1 -0.76875 14.4676 14.1976
804 1 1 0 1 -2.62488 14.1496 11.4163
805 1 1 0 1 -0.343139 14.8124 15.4523
806 1 1 0 1 2.61318 9.2256 9.26641
807 1 1 0 1 -2.97482 15.3036 15.8323
808 1 1 0 1 0.638209 20.6173 12.9967
809 1 1 0 1 -3.51147 17.1344 15.678