ITEM: TIMESTEP
31000
ITEM: NUMBER OF ATOMS
6752
ITEM: BOX BOUNDS pp pp pp
0.0000000000000000e+00 2.2000000000000000e+01
0.0000000000000000e+00 2.2000000000000000e+01
0.0000000000000000e+00 2.2000000000000000e+01
ITEM: ATOMS id mol type q mass xu yu zu
1 1 1 0 1 -4.6372 -7.34078 4.12772
2 1 1 0 1 -1.11518 6.75535 -4.96557
3 1 1 0 1 -1.19843 0.209397 0.986109
4 1 1 0 1 -10.0368 0.455654 4.4516
5 1 1 0 1 4.95186 6.98231 2.56525
6 1 1 0 1 -16.8328 -2.62676 8.48739
7 1 1 0 1 5.79323 5.84267 6.90467
8 1 1 0 1 3.37539 -4.47132 14.1311
9 1 1 0 1 0.903131 -3.07081 10.1798
10 1 1 0 1 -7.36917 -5.43029 14.1547
11 1 1 0 1 0.659489 -4.61206 -0.23959
12 1 1 0 1 -3.45398 -3.79676 10.4535
13 1 1 0 1 8.28152 3.01012 12.5324
14 1 1 0 1 -5.81123 10.6692 10.6557
15 1 1 0 1 -6.82303 5.04405 9.0451
16 1 1 0 1 -2.67587 -5.65043 16.3507
17 1 1 0 1 -2.66761 -1.88381 14.4071
18 1 1 0 1 -8.31196 -8.32716 24.7
19 1 1 0 1 -7.9109 3.94849 17.7344
20 1 1 0 1 -8.11995 2.86042 20.5696
21 1 1 0 1 -6.33144 3.31763 18.2455
22 1 1 0 1 -0.761796 6.38276 18.4325
23 1 1 0 1 -12.278 -3.13864 6.97215
24 1 1 0 1 -10.8816 6.18186 2.63595
25 1 1 0 1 -0.644503 1.28883 -5.72974
26 1 1 0 1 2.44778 -6.73243 5.56092
27 1 1 0 1 -4.58453 -0.369061 10.0348
28 1 1 0 1 -4.33156 3.14752 -0.328675
29 1 1 0 1 -1.57832 -3.76078 15.5236
30 1 1 0 1 -2.88762 1.07269 19.842
31 1 1 0 1 -3.04966 11.8488 9.03297
32 1 1 0 1 -5.01419 -1.29187 5.29669
33 1 1 0 1 -10.0269 -0.562268 11.3609
34 1 1 0 1 -5.56714 8.93502 12.0373
35 1 1 0 1 -0.0633104 8.63045 14.5476
36 1 1 0 1 3.59349 3.37759 7.64408
37 1 1 0 1 -0.860844 1.01506 14.5246
38 1 1 0 1 2.19505 2.27611 25.3982
39 1 1 0 1 -1.15033 6.813 9.55268
40 1 1 0 1 -1.98597 6.83178 18.5807
41 1 1 0 1 -5.47208 -1.77201 15.5696
42 1 1 0 1 -5.86088 1.33756 22.272
43 1 1 0 1 -4.04211 8.64548 16.1934
44 1 1 0 1 -3.87742 10.2745 15.9508
45 1 1 0 1 -13.4294 7.11515 -0.959886
46 1 1 0 1 -4.92719 3.05015 4.64478
47 1 1 0 1 -5.70011 -0.269502 3.78058
48 1 1 0 1 -6.38508 14.6667 0.81535
49 1 1 0 1 -7.44307 6.60708 2.13167
50 1 1 0 1 -5.52931 6.97874 -1.46659
51 1 1 0 1 -0.193403 0.864354 1.47831
52 1 1 0 1 2.56924 2.12401 14.699
53 1 1 0 1 -2.11245 -0.899771 2.60924
54 1 1 0 1 -7.71837 -5.13672 21.5329
55 1 1 0 1 -3.33934 2.14161 7.49421
56 1 1 0 1 -4.43099 2.17762 6.17094
57 1 1 0 1 -6.38562 8.80559 15.0653
58 1 1 0 1 -2.90116 8.36382 12.7271
59 1 1 0 1 -5.11814 2.95499 8.39649
60 1 1 0 1 1.52121 1.73567 24.4899
61 1 1 0 1 -4.50416 8.27109 15.0584
62 1 1 0 1 2.39399 2.98081 23.5236
63 1 1 0 1 1.07982 10.3186 2.96655
64 1 1 0 1 -1.37736 2.28265 14.9455
65 1 1 0 1 -13.5155 -6.36366 20.8462
66 1 1 0 1 -2.76635 7.54539 25.5313
67 1 1 0 1 -10.1789 -5.38448 -3.79346
68 1 1 0 1 -4.58597 4.09163 -12.1463
69 1 1 0 1 -2.15556 8.08355 1.45482
70 1 1 0 1 -1.10697 10.2334 0.447044
71 1 1 0 1 2.71293 -0.0585528 3.9625
72 1 1 0 1 -10.8148 7.51444 1.21185
73 1 1 0 1 0.813173 0.323952 3.26818
74 1 1 0 1 -3.57116 0.107132 16.4857
75 1 1 0 1 -1.55647 -0.47415 5.75876
76 1 1 0 1 0.861817 -6.59764 10.1813
77 1 1 0 1 -9.94613 -3.00233 6.6879
78 1 1 0 1 -0.0969328 4.26186 12.1436
79 1 1 0 1 -1.7531 4.90203 12.3476
80 1 1 0 1 -1.76166 -5.2157 12.8901
81 1 1 0 1 -3.24676 7.92107 14.5015
82 1 1 0 1 -2.11478 -4.13886 12.6159
83 1 1 0 1 -4.43656 1.06976 17.6833
84 1 1 0 1 1.72028 6.87199 13.1724
85 1 1 0 1 -2.78521 -3.62424 25.6722
86 1 1 0 1 -2.0237 -7.71251 17.2998
87 1 1 0 1 -1.47916 4.24645 22.2759
88 1 1 0 1 -4.76166 5.68426 17.0224
89 1 1 0 1 -4.42797 9.32606 2.67405
90 1 1 0 1 -0.71254 12.3097 9.13397
91 1 1 0 1 -0.830417 -2.81237 10.9582
92 1 1 0 1 3.75712 5.98464 4.07127
93 1 1 0 1 0.791618 8.67309 1.39909
94 1 1 0 1 -2.7418 -6.86155 2.26331
95 1 1 0 1 -2.84088 12.2028 6.45927
96 1 1 0 1 1.21501 4.92433 0.770521
97 1 1 0 1 -7.03139 7.45514 11.2843
98 1 1 0 1 5.35611 6.05795 8.53547
99 1 1 0 1 0.744788 8.84068 4.92765
100 1 1 0 1 -1.44059 2.91635 4.01941
101 1 1 0 1 -6.43662 3.20314 8.66104
102 1 1 0 1 -3.62583 4.75249 10.2939
103 1 1 0 1 -9.49128 9.7211 11.0948
104 1 1 0 1 -2.89291 16.6075 15.2879
105 1 1 0 1 -1.07152 2.04969 1.53755
106 1 1 0 1 1.70639 3.26726 18.9501
107 1 1 0 1 -7.35053 9.00743 15.2895
108 1 1 0 1 8.28987 6.24012 14.83
109 1 1 0 1 -9.9065 2.88746 23.5569
110 1 1 0 1 -7.17405 4.0164 24.485
111 1 1 0 1 -6.40091 2.39007 1.80606
112 1 1 0 1 -3.37865 9.49359 -4.04287
113 1 1 0 1 -3.54277 7.47263 18.2924
114 1 1 0 1 2.34219 7.44981 5.06937
115 1 1 0 1 -5.50251 10.9249 2.09554
116 1 1 0 1 -0.484619 13.3653 10.1506
117 1 1 0 1 -3.97961 8.36717 4.64881
118 1 1 0 1 -3.41299 3.21525 2.39337
119 1 1 0 1 -8.91292 7.79495 8.45429
120 1 1 0 1 -1.97606 1.72086 2.31034
121 1 1 0 1 -3.90451 2.78803 1.55813
122 1 1 0 1 -0.172012 5.4138 8.06899
123 1 1 0 1 -5.78303 1.00516 13.4094
124 1 1 0 1 -9.42702 9.2175 14.8256
125 1 1 0 1 -8.56037 7.11805 2.63462
126 1 1 0 1 -6.62592 6.47755 23.2742
127 1 1 0 1 -0.841369 9.1802 15.3004
128 1 1 0 1 -11.2155 9.07041 11.8926
129 1 1 0 1 -3.13243 5.25432 26.0021
130 1 1 0 1 -4.79828 6.22744 9.87062
131 1 1 0 1 -10.7241 2.41753 4.90547
132 1 1 0 1 -7.97479 1.98673 25.9282
133 1 1 0 1 3.63442 4.98317 3.2718
134 1 1 0 1 -9.5375 9.22121 6.49018
135 1 1 0 1 -5.10716 0.835667 2.62608
136 1 1 0 1 -0.768539 16.404 3.73594
137 1 1 0 1 -8.66943 4.89527 10.442
138 1 1 0 1 -8.72009 11.0571 17.6657
139 1 1 0 1 1.28999 5.42433 5.43566
140 1 1 0 1 -11.6684 12.0523 -0.281977
141 1 1 0 1 3.27675 5.41686 -0.150201
142 1 1 0 1 -3.63041 2.36084 9.89987
143 1 1 0 1 0.0401798 1.28707 11.496
144 1 1 0 1 -0.0632068 -0.0405625 9.12622
145 1 1 0 1 -7.52407 11.199 19.7134
146 1 1 0 1 -9.92264 8.87913 20.317
147 1 1 0 1 2.56866 24.236 16.474
148 1 1 0 1 -3.02154 13.0654 11.8842
149 1 1 0 1 -10.9406 0.883908 19.5934
150 1 1 0 1 -8.94475 7.64809 5.72944
151 1 1 0 1 -5.79846 7.32527 17.9002
152 1 1 0 1 -3.45984 -0.655681 21.1885
153 1 1 0 1 -6.15709 11.5351 23.6156
154 1 1 0 1 -5.292 7.13749 22.5529
155 1 1 0 1 -3.84751 5.67471 -5.56317
156 1 1 0 1 -2.15149 4.6747 -0.501138
157 1 1 0 1 -5.07379 14.0727 3.15064
158 1 1 0 1 -1.83261 16.0368 4.3596
159 1 1 0 1 -8.05411 4.88894 0.372634
160 1 1 0 1 -4.52886 3.6983 3.15412
161 1 1 0 1 -1.10307 10.6589 6.81477
162 1 1 0 1 -6.39588 8.90777 7.76823
163 1 1 0 1 2.50504 8.62512 3.12248
164 1 1 0 1 -8.61282 7.44187 14.253
165 1 1 0 1 -3.47829 0.59465 13.219
166 1 1 0 1 -4.61326 14.9987 21.6222
167 1 1 0 1 -7.5246 18.0103 18.3664
168 1 1 0 1 -9.85493 6.65787 20.3442
169 1 1 0 1 -10.6638 13.7773 13.5372
170 1 1 0 1 4.70542 9.01885 21.7897
171 1 1 0 1 -3.9928 13.7945 23.2513
172 1 1 0 1 -0.404164 6.83737 19.8557
173 1 1 0 1 -4.96762 1.97762 17.1438
174 1 1 0 1 5.70301 6.2763 25.5796
175 1 1 0 1 -4.80555 8.58148 16.8613
176 1 1 0 1 1.13167 1.91581 25.8581
177 1 1 0 1 -5.87393 5.84329 -0.653673
178 1 1 0 1 0.00606349 19.8371 8.20543
179 1 1 0 1 -5.73813 17.4535 1.40989
180 1 1 0 1 -1.03483 18.5687 -1.18222
181 1 1 0 1 -12.5223 17.0847 0.309092
182 1 1 0 1 -8.23485 13.7079 5.10886
183 1 1 0 1 -5.9998 17.0115 -0.693799
184 1 1 0 1 -1.04046 8.17731 7.04966
185 1 1 0 1 -10.3459 0.538612 10.6385
186 1 1 0 1 -13.7041 14.3359 12.7521
187 1 1 0 1 -5.2457 16.2084 15.1155
188 1 1 0 1 1.32018 -1.0905 14.4834
189 1 1 0 1 -6.10551 12.1065 17.4516
190 1 1 0 1 -4.53299 1.79417 15.3028
191 1 1 0 1 -4.56725 10.0696 28.8958
192 1 1 0 1 -4.01398 5.45148 9.54781
193 1 1 0 1 -2.88448 4.70929 20.3472
194 1 1 0 1 5.39828 7.92886 17.1602
195 1 1 0 1 -6.65062 4.88477 13.4429
196 1 1 0 1 -4.30801 8.65201 19.6348
197 1 1 0 1 -4.08664 3.23509 16.9213
198 1 1 0 1 8.5878 5.64841 25.84
199 1 1 0 1 -0.510378 12.7686 4.36782
200 1 1 0 1 5.58127 11.3073 9.54521
201 1 1 0 1 -1.61261 18.462 -3.73206
202 1 1 0 1 -4.50565 2.98935 2.44482
203 1 1 0 1 -5.00646 10.8113 5.40547
204 1 1 0 1 1.89762 4.97986 14.7595
205 1 1 0 1 4.36566 3.48027 -1.76223
206 1 1 0 1 4.46579 6.52768 7.7381
207 1 1 0 1 -2.26111 7.54045 2.4709
208 1 1 0 1 -0.273009 3.94332 6.59008
209 1 1 0 1 0.86979 0.918751 -0.221383
210 1 1 0 1 -6.0055 6.55879 3.98689
211 1 1 0 1 -2.95607 9.32215 4.72542
212 1 1 0 1 -10.9253 9.18638 13.2387
213 1 1 0 1 -3.31868 12.8327 25.2423
214 1 1 0 1 -15.6947 26.2521 18.7195
215 1 1 0 1 -8.07011 16.5916 11.7349
216 1 1 0 1 -9.81059 11.1864 18.4075
217 1 1 0 1 -9.89654 15.5838 27.008
218 1 1 0 1 0.403041 6.94392 26.169
219 1 1 0 1 3.22239 11.1895 27.1234
220 1 1 0 1 1.85523 17.4548 19.5735
221 1 1 0 1 15.2292 7.02835 -1.7635
222 1 1 0 1 -5.31828 15.3865 -2.26971
223 1 1 0 1 -10.9377 10.0746 -0.18456
224 1 1 0 1 -4.96857 8.83422 -6.11621
225 1 1 0 1 -10.3236 20.1233 7.23751
226 1 1 0 1 -11.565 11.3266 7.87627
227 1 1 0 1 -7.82745 16.6001 8.25664
228 1 1 0 1 -9.36248 16.2127 2.17861
229 1 1 0 1 6.11878 8.72269 11.2829
230 1 1 0 1 -4.36124 13.6662 12.096
231 1 1 0 1 -2.0228 6.83071 12.7316
232 1 1 0 1 0.648574 -1.52769 12.2772
233 1 1 0 1 -0.922857 8.55271 16.319
234 1 1 0 1 -9.76351 14.3406 12.7299
235 1 1 0 1 -4.76394 9.67629 17.9919
236 1 1 0 1 -6.53647 6.92968 10.2765
237 1 1 0 1 -12.3879 13.8164 17.866
238 1 1 0 1 -6.43681 13.3529 15.2387
239 1 1 0 1 -1.05899 8.01532 14.163
240 1 1 0 1 -4.73708 14.0156 11.0518
241 1 1 0 1 -3.77627 8.9112 17.1429
242 1 1 0 1 -4.18557 0.864988 22.6549
243 1 1 0 1 -5.45983 8.49196 -2.12912
244 1 1 0 1 -1.41114 7.37545 -4.01911
245 1 1 0 1 -8.25718 14.5064 -1.13761
246 1 1 0 1 -2.58548 8.77876 2.55798
247 1 1 0 1 -7.13295 12.3666 8.32135
248 1 1 0 1 -1.63935 -1.52641 9.27419
249 1 1 0 1 -11.3575 10.4655 4.94881
250 1 1 0 1 2.71432 10.0471 4.58189
251 1 1 0 1 -5.08605 7.07353 6.12521
252 1 1 0 1 -0.750988 3.06079 7.59663
253 1 1 0 1 0.696772 0.614024 19.1334
254 1 1 0 1 0.647961 9.33659 20.3422
255 1 1 0 1 -8.90642 2.81886 4.82081
256 1 1 0 1 -8.2827 17.92 10.1285
257 1 1 0 1 2.20963 14.7345 17.7411
258 1 1 0 1 0.367844 13.3475 22.091
259 1 1 0 1 -5.08347 13.1966 21.8943
260 1 1 0 1 -2.14891 13.2879 21.629
261 1 1 0 1 -4.44551 9.52476 16.4447
262 1 1 0 1 -5.67972 9.31433 18.46
263 1 1 0 1 6.77322 16.1638 16.9413
264 1 1 0 1 -1.48043 16.9091 22.0937
265 1 1 0 1 -4.04856 16.1359 1.02714
266 1 1 0 1 6.48346 20.6112 8.6794
267 1 1 0 1 -0.074336 17.0837 9.37669
268 1 1 0 1 -3.91372 3.64185 -1.78161
269 1 1 0 1 -0.0604398 7.02927 10.1133
270 1 1 0 1 -4.63745 17.3313 -0.766018
271 1 1 0 1 -4.33426 6.39459 7.7615
272 1 1 0 1 -9.16301 11.3267 15.8526
273 1 1 0 1 -3.87483 14.7775 11.1978
274 1 1 0 1 -11.6772 10.5386 6.2874
275 1 1 0 1 -9.13958 -1.22905 11.424
276 1 1 0 1 -0.910443 14.1131 9.49312
277 1 1 0 1 -8.19429 8.73128 12.3956
278 1 1 0 1 3.80408 12.6246 19.826
279 1 1 0 1 -3.74667 18.4118 13.6544
280 1 1 0 1 -6.5162 13.1568 8.93645
281 1 1 0 1 -0.338329 11.7068 27.1929
282 1 1 0 1 -2.32527 13.1529 8.60881
283 1 1 0 1 1.44458 12.3561 15.6295
284 1 1 0 1 -6.19649 16.8957 14.1658
285 1 1 0 1 -8.67226 2.10081 17.3361
286 1 1 0 1 -6.16399 9.94375 24.505
287 1 1 0 1 -8.59136 20.2986 4.10931
288 1 1 0 1 -4.40672 14.8182 -2.71012
289 1 1 0 1 -9.84285 0.910944 6.56063
290 1 1 0 1 -5.29747 12.932 6.17874
291 1 1 0 1 -8.52547 1.22019 11.7575
292 1 1 0 1 -7.31184 12.1182 10.5229
293 1 1 0 1 2.9638 8.51076 6.96735
294 1 1 0 1 -3.8833 9.77155 8.98023
295 1 1 0 1 -4.13529 7.0958 5.44484
296 1 1 0 1 -2.67623 13.6431 13.9265
297 1 1 0 1 -7.21597 12.1079 5.51863
298 1 1 0 1 -9.19894 6.44275 18.9731
299 1 1 0 1 -1.72485 19.3258 13.6336
300 1 1 0 1 1.12559 20.9018 18.8453
301 1 1 0 1 1.19443 18.0371 20.6068
302 1 1 0 1 -3.73874 16.8511 13.5398
303 1 1 0 1 -12.4368 12.9944 5.51981
304 1 1 0 1 2.53107 1.8939 8.93479
305 1 1 0 1 8.3686 9.89287 21.4566
306 1 1 0 1 -5.14345 13.5401 23.0802
307 1 1 0 1 -0.34407 16.9403 21.5761
308 1 1 0 1 3.75863 27.0299 26.4562
309 1 1 0 1 0.47686 12.7742 5.60527
310 1 1 0 1 1.69431 12.1873 7.0496
311 1 1 0 1 -13.4499 9.25383 -4.1981
312 1 1 0 1 -6.65189 7.16228 5.06315
313 1 1 0 1 -11.1073 12.7047 5.05472
314 1 1 0 1 -4.66198 7.80093 2.84292
315 1 1 0 1 2.93227 9.53199 7.3757
316 1 1 0 1 -10.2485 21.3682 10.109
317 1 1 0 1 -3.08597 15.9916 9.74859
318 1 1 0 1 -3.50087 19.612 12.7243
319 1 1 0 1 -2.81371 12.0588 5.38293
320 1 1 0 1 3.96319 17.4035 6.49963
321 1 1 0 1 -3.1122 12.3768 18.0096
322 1 1 0 1 -4.79359 12.35 20.7761
323 1 1 0 1 -4.60811 15.3805 6.13334
324 1 1 0 1 2.55201 9.39038 6.14621
325 1 1 0 1 1.97458 10.0418 6.90022
326 1 1 0 1 -2.98012 14.0221 16.8912
327 1 1 0 1 -8.80346 15.4336 19.6603
328 1 1 0 1 1.95666 17.2623 23.7936
329 1 1 0 1 0.43145 15.5826 23.2844
330 1 1 0 1 4.82254 21.1247 22.8681
331 1 1 0 1 -9.49822 12.7153 5.55562
332 1 1 0 1 -1.6356 17.9699 2.18942
333 1 1 0 1 0.97521 5.8044 4.52811
334 1 1 0 1 -7.63834 18.1151 -2.57716
335 1 1 0 1 3.13882 13.6766 11.4114
336 1 1 0 1 -13.0889 16.724 2.24177
337 1 1 0 1 -3.46898 8.41232 3.08864
338 1 1 0 1 -5.392 13.627 7.34057
339 1 1 0 1 -8.33569 11.5562 6.76495
340 1 1 0 1 -5.9012 5.9532 9.95215
341 1 1 0 1 -4.10117 10.904 8.40614
342 1 1 0 1 -1.82076 16.7531 7.46103
343 1 1 0 1 4.85366 9.79293 6.11474
344 1 1 0 1 -10.6678 9.61378 11.2524
345 1 1 0 1 -4.86649 21.1672 13.0782
346 1 1 0 1 -2.16998 17.6851 22.0517
347 1 1 0 1 1.72603 24.508 13.2987
348 1 1 0 1 -5.92395 13.6843 14.3878
349 1 1 0 1 1.55368 21.4489 15.4406
350 1 1 0 1 -2.34297 14.6604 16.2791
351 1 1 0 1 -10.7155 17.6718 22.2502
352 1 1 0 1 0.96415 18.0988 28.3318
353 1 1 0 1 -10.0521 19.2256 -5.39847
354 1 1 0 1 -0.501782 17.5401 0.495985
355 1 1 0 1 -1.89058 9.40408 5.60194
356 1 1 0 1 -5.42052 12.4568 7.3455
357 1 1 0 1 0.619524 18.482 0.244056
358 1 1 0 1 -8.03381 16.5675 6.11421
359 1 1 0 1 -9.01847 14.6615 18.017
360 1 1 0 1 2.35202 11.5782 1.99619
361 1 1 0 1 0.877928 14.7235 11.2291
362 1 1 0 1 -1.78338 14.6886 7.7134
363 1 1 0 1 -1.14675 12.5833 10.1115
364 1 1 0 1 6.37327 6.58876 7.43339
365 1 1 0 1 -3.21862 -1.46273 4.31444
366 1 1 0 1 -3.56235 13.2649 14.81
367 1 1 0 1 -3.28048 6.83754 14.9837
368 1 1 0 1 -4.03157 17.8872 16.4412
369 1 1 0 1 -3.96091 12.4967 8.75544
370 1 1 0 1 -1.6032 3.0757 7.01331
371 1 1 0 1 -12.6011 20.6826 25.8264
372 1 1 0 1 -0.788374 20.3732 23.3853
373 1 1 0 1 -5.36362 12.6837 15.9056
374 1 1 0 1 2.31166 12.7834 28.1636
375 1 1 0 1 -9.83298 1.97026 5.58707
376 1 1 0 1 -8.81075 16.3219 0.281659
377 1 1 0 1 -12.8048 6.99319 -2.01151
378 1 1 0 1 -9.3301 15.7349 10.1739
379 1 1 0 1 -1.87774 14.4611 -6.65202
380 1 1 0 1 -4.04312 15.1683 1.27147
381 1 1 0 1 -7.7475 15.5185 5.42087
382 1 1 0 1 -12.3361 18.1682 14.5975
383 1 1 0 1 -3.09142 23.6373 8.96464
384 1 1 0 1 2.41862 9.1796 11.8464
385 1 1 0 1 -10.7231 20.1032 5.95176
386 1 1 0 1 -1.55716 10.7888 12.9974
387 1 1 0 1 -5.04418 10.3903 18.8354
388 1 1 0 1 -4.05091 16.4058 14.9869
389 1 1 0 1 -4.0865 19.6215 15.141
390 1 1 0 1 1.96095 13.6947 20.8845
391 1 1 0 1 -6.41138 23.4529 18.6232
392 1 1 0 1 -7.2389 18.3035 9.74342
393 1 1 0 1 -4.94026 9.10969 11.0159
394 1 1 0 1 -2.73429 15.3973 22.059
395 1 1 0 1 -9.82162 16.5828 10.123
396 1 1 0 1 -2.17184 6.94619 21.7794
397 1 1 0 1 -5.69734 16.7261 -1.7192
398 1 1 0 1 -3.20573 25.6493 -3.20028
399 1 1 0 1 0.0777508 14.3959 1.21875
400 1 1 0 1 -4.51977 13.3995 2.02215
401 1 1 0 1 -6.32025 7.60889 12.8413
402 1 1 0 1 -6.48651 11.7753 14.7606
403 1 1 0 1 -1.46103 13.2183 9.34788
404 1 1 0 1 -3.59192 32.1484 6.40689
405 1 1 0 1 -11.3429 13.1118 8.66951
406 1 1 0 1 -8.93663 20.328 7.02281
407 1 1 0 1 -3.31368 18.6702 8.17271
408 1 1 0 1 -12.0029 22.0371 16.2394
409 1 1 0 1 -7.18923 13.5539 12.1793
410 1 1 0 1 -5.97434 3.61183 4.7345
411 1 1 0 1 9.62196 18.3998 3.92208
412 1 1 0 1 -14.2814 12.9433 4.73402
413 1 1 0 1 -14.4184 10.4057 19.575
414 1 1 0 1 -4.12057 13.0549 21.2273
415 1 1 0 1 1.2105 15.5351 27.2666
416 1 1 0 1 -3.46087 15.8971 27.3764
417 1 1 0 1 0.611808 21.5901 26.0524
418 1 1 0 1 0.807125 16.7076 28.2926
419 1 1 0 1 -8.35847 19.3889 2.0786
420 1 1 0 1 -5.54457 24.825 19.662
421 1 1 0 1 -5.33159 15.9137 7.05561
422 1 1 0 1 -4.99928 4.67665 3.47735
423 1 1 0 1 1.09772 30.4829 10.6402
424 1 1 0 1 -2.26428 15.3161 17.102
425 1 1 0 1 -1.28333 12.6769 2.83496
426 1 1 0 1 -7.92145 19.0295 -2.84646
427 1 1 0 1 -5.19845 26.2339 -0.250675
428 1 1 0 1 4.12229 13.9025 1.10582
429 1 1 0 1 -4.63817 27.1619 7.45679
430 1 1 0 1 2.3488 16.532 7.29206
431 1 1 0 1 -8.59936 13.6367 12.7169
432 1 1 0 1 -3.23242 26.4877 7.55384
433 1 1 0 1 -3.28381 21.3307 17.087
434 1 1 0 1 -6.18284 7.1598 8.39555
435 1 1 0 1 -6.06366 16.2322 22.0804
436 1 1 0 1 -5.55788 10.9788 12.4482
437 1 1 0 1 1.31205 23.7827 18.0179
438 1 1 0 1 -9.27802 16.4278 19.0765
439 1 1 0 1 -4.76604 23.3466 21.5297
440 1 1 0 1 -4.71695 14.9334 24.1131
441 1 1 0 1 -2.53128 17.7909 -4.1192
442 1 1 0 1 -8.26145 18.9454 5.60768
443 1 1 0 1 -4.1188 12.0983 -3.83595
444 1 1 0 1 -0.369756 23.183 3.77001
445 1 1 0 1 -3.54021 17.4826 1.01403
446 1 1 0 1 4.35428 7.14034 14.2337
447 1 1 0 1 -3.0488 11.3016 7.71088
448 1 1 0 1 -2.51439 15.2685 8.34689
449 1 1 0 1 1.83696 15.1757 11.8128
450 1 1 0 1 -0.518329 11.788 24.6481
451 1 1 0 1 -7.20962 12.9241 11.0899
452 1 1 0 1 -8.92443 21.1071 17.5678
453 1 1 0 1 -5.29657 13.5331 16.5563
454 1 1 0 1 3.74536 21.0843 13.1666
455 1 1 0 1 -1.98945 0.913677 0.069099
456 1 1 0 1 -4.52295 21.5567 17.7606
457 1 1 0 1 -8.47289 18.3767 20.8258
458 1 1 0 1 -13.34 14.8518 15.6657
459 1 1 0 1 -8.35598 15.2813 14.74
460 1 1 0 1 -3.39184 17.6828 22.0415
461 1 1 0 1 2.98498 18.2873 10.0142
462 1 1 0 1 11.7982 24.8259 20.2558
463 1 1 0 1 3.65083 19.1412 0.241259
464 1 1 0 1 -1.93932 23.7234 10.2083
465 1 1 0 1 7.25435 24.3143 -2.84113
466 1 1 0 1 -3.31992 27.2547 -0.282451
467 1 1 0 1 -5.62115 21.6675 9.91576
468 1 1 0 1 -6.70863 23.8762 3.77755
469 1 1 0 1 0.14713 16.1244 15.0761
470 1 1 0 1 -0.694717 20.1026 15.4578
471 1 1 0 1 4.07058 7.86628 4.7209
472 1 1 0 1 6.2481 30.7277 14.2269
473 1 1 0 1 -5.93572 18.4592 9.96493
474 1 1 0 1 1.15221 15.0415 13.0046
475 1 1 0 1 -2.11355 17.4885 14.9737
476 1 1 0 1 5.55569 28.1484 24.156
477 1 1 0 1 1.77466 25.0903 14.1673
478 1 1 0 1 6.34199 23.9432 17.47
479 1 1 0 1 -6.22858 33.6628 7.43479
480 1 1 0 1 5.54255 22.3772 18.1941
481 1 1 0 1 -0.684803 21.5237 17.9145
482 1 1 0 1 -1.88827 30.0484 16.1606
483 1 1 0 1 4.01633 22.0325 21.9475
484 1 1 0 1 -4.05346 19.3034 19.9461
485 1 1 0 1 -3.93018 -8.26365 3.23239
486 1 1 0 1 -4.93247 6.89482 -10.4734
487 1 1 0 1 -0.300972 2.9589 1.43693
488 1 1 0 1 -5.72058 -4.23532 3.83261
489 1 1 0 1 0.203663 1.54448 -2.3935
490 1 1 0 1 -10.2952 -2.28202 8.52793
491 1 1 0 1 -2.30438 2.2044 3.43327
492 1 1 0 1 -0.37322 -14.2734 13.0689
493 1 1 0 1 2.3506 1.3384 14.0627
494 1 1 0 1 -5.0463 2.17809 7.73824
495 1 1 0 1 -4.82911 -1.09828 18.7115
496 1 1 0 1 1.03009 8.07524 16.3578
497 1 1 0 1 -3.05192 -8.47282 15.8822
498 1 1 0 1 1.2293 8.80967 9.10084
499 1 1 0 1 2.50815 8.75823 9.16823
500 1 1 0 1 -5.45206 -6.54925 12.5368
501 1 1 0 1 1.1983 -0.27061 9.63955
502 1 1 0 1 -1.83934 -9.69868 20.0636
503 1 1 0 1 -2.49856 7.05718 9.6465
504 1 1 0 1 0.784231 -4.16466 9.86735
505 1 1 0 1 -2.77151 -3.07088 12.4821
506 1 1 0 1 -2.32607 7.82617 13.4247
507 1 1 0 1 1.57793 1.91609 -1.96247
508 1 1 0 1 -1.61023 3.23543 1.92053
509 1 1 0 1 -3.291 5.47677 1.62469
510 1 1 0 1 -14.5255 -9.4726 -3.54821
511 1 1 0 1 5.95505 1.50731 5.92786
512 1 1 0 1 -3.86291 17.8329 5.9394
513 1 1 0 1 -8.28522 1.7981 7.90083
514 1 1 0 1 -2.57045 -1.15178 0.296387
515 1 1 0 1 7.34827 9.35129 -2.34603
516 1 1 0 1 -4.4776 13.5314 6.51261
517 1 1 0 1 -2.59808 -1.88279 7.04538
518 1 1 0 1 0.182524 2.79408 7.10787
519 1 1 0 1 5.04759 0.0304734 20.0226
520 1 1 0 1 -0.451001 -5.22287 10.2505
521 1 1 0 1 -1.57389 2.89918 10.5769
522 1 1 0 1 -5.71641 4.52237 9.15583
523 1 1 0 1 1.23548 2.05587 14.5783
524 1 1 0 1 1.10496 4.43696 13.7615
525 1 1 0 1 -1.42854 1.37437 22.8051
526 1 1 0 1 -0.571002 -3.32566 25.6407
527 1 1 0 1 -1.00756 9.60334 19.9433
528 1 1 0 1 3.02198 1.22003 26.1331
529 1 1 0 1 6.94422 13.1931 11.6187
530 1 1 0 1 5.29347 -5.01866 -4.77413
531 1 1 0 1 4.86524 12.3359 -0.280328
532 1 1 0 1 -0.559636 -6.0287 8.18898
533 1 1 0 1 -5.78882 2.22718 -3.58214
534 1 1 0 1 -3.06512 1.10213 2.96801
535 1 1 0 1 1.56171 9.56246 -0.338695
536 1 1 0 1 -8.97484 14.0706 0.722414
537 1 1 0 1 0.21233 4.97704 9.37865
538 1 1 0 1 -1.56823 -1.08927 11.6239
539 1 1 0 1 1.87235 7.12819 5.87489
540 1 1 0 1 1.94781 5.52986 9.71164
541 1 1 0 1 -8.01526 7.78083 7.36409
542 1 1 0 1 -1.00644 6.40953 10.732
543 1 1 0 1 -0.678113 10.1828 3.80245
544 1 1 0 1 1.52562 6.2776 7.98739
545 1 1 0 1 0.839053 9.67329 10.5694
546 1 1 0 1 1.23664 -1.36618 13.3951
547 1 1 0 1 -0.903526 -2.59032 18.5596
548 1 1 0 1 3.71484 9.19023 27.3901
549 1 1 0 1 1.04009 3.17191 28.5399
550 1 1 0 1 -6.48709 8.68102 26.1386
551 1 1 0 1 -4.17534 3.15032 -6.12078
552 1 1 0 1 -7.52466 0.372958 -5.0002
553 1 1 0 1 -1.23561 8.79337 0.808493
554 1 1 0 1 2.33868 6.65837 0.586899
555 1 1 0 1 -1.72388 6.09016 -8.53684
556 1 1 0 1 -3.13285 2.28412 4.61895
557 1 1 0 1 3.88746 9.04794 1.11609
558 1 1 0 1 3.36227 5.2225 6.77595
559 1 1 0 1 1.3594 -4.69529 12.4622
560 1 1 0 1 -1.21343 -5.50675 -0.941341
561 1 1 0 1 0.666371 4.86739 14.506
562 1 1 0 1 5.17836 4.47895 23.3856
563 1 1 0 1 -0.161365 1.7964 21.6122
564 1 1 0 1 -5.56641 -1.31616 9.41343
565 1 1 0 1 11.3416 7.94715 16.9995
566 1 1 0 1 3.69659 6.05963 8.26306
567 1 1 0 1 -2.62759 3.90339 16.0344
568 1 1 0 1 6.85272 4.53305 13.192
569 1 1 0 1 3.78869 2.0192 18.9417
570 1 1 0 1 0.977227 8.51585 29.3949
571 1 1 0 1 5.11255 7.35104 23.3212
572 1 1 0 1 1.64292 -1.37108 20.869
573 1 1 0 1 -1.03193 3.08222 -3.90145
574 1 1 0 1 -7.81848 0.0637801 0.386906
575 1 1 0 1 -4.86743 1.71435 -8.79455
576 1 1 0 1 -0.680446 5.06415 -3.10621
577 1 1 0 1 -6.12708 -1.15202 4.07712
578 1 1 0 1 -1.00411 10.7488 11.3764
579 1 1 0 1 -5.00594 6.76302 2.79323
580 1 1 0 1 -1.9144 0.10509 13.0518
581 1 1 0 1 -0.476518 7.74775 9.04107
582 1 1 0 1 2.13673 8.9603 8.00604
583 1 1 0 1 -8.30704 14.0366 11.1323
584 1 1 0 1 -4.43193 7.18191 14.9444
585 1 1 0 1 -5.68044 1.3818 12.2526
586 1 1 0 1 2.21941 12.3767 17.9038
587 1 1 0 1 -4.60051 18.8421 12.998
588 1 1 0 1 -8.18374 5.7744 18.3489
589 1 1 0 1 -5.3535 2.47511 13.9909
590 1 1 0 1 -5.5599 5.68271 13.5079
591 1 1 0 1 -8.77566 6.22821 10.8845
592 1 1 0 1 -2.48753 -1.05512 16.5698
593 1 1 0 1 -3.6377 4.87209 13.5887
594 1 1 0 1 -9.96852 -4.97307 20.1088
595 1 1 0 1 -0.485612 -0.60325 -1.60655
596 1 1 0 1 1.38914 11.3677 1.00837
597 1 1 0 1 -7.77722 -0.450771 3.67059
598 1 1 0 1 3.76204 9.57546 0.0892672
599 1 1 0 1 0.0819011 10.6727 0.325024
600 1 1 0 1 -2.39703 3.67687 7.56384
601 1 1 0 1 -7.65672 6.47748 0.969191
602 1 1 0 1 -6.91163 -5.03994 1.88112
603 1 1 0 1 0.417066 -4.91337 18.2652
604 1 1 0 1 15.0584 9.82257 17.0563
605 1 1 0 1 -5.98794 8.24176 4.92397
606 1 1 0 1 -6.20142 -2.65888 14.8189
607 1 1 0 1 -5.4465 6.68491 5.10512
608 1 1 0 1 0.619581 -3.79241 10.8935
609 1 1 0 1 4.40423 8.24456 14.686
610 1 1 0 1 1.42407 12.0772 8.8989
611 1 1 0 1 -3.61364 4.19912 3.97004
612 1 1 0 1 -1.84678 4.22007 23.4889
613 1 1 0 1 1.4456 5.67151 16.6084
614 1 1 0 1 -1.49557 10.2341 24.1626
615 1 1 0 1 -15.4058 4.1697 17.5971
616 1 1 0 1 -3.1764 10.7055 20.1788
617 1 1 0 1 -0.49199 2.19857 -4.69507
618 1 1 0 1 -12.1507 3.76045 1.08996
619 1 1 0 1 4.63923 18.6669 2.23463
620 1 1 0 1 3.21872 10.1994 5.8189
621 1 1 0 1 -1.73217 7.27053 4.12114
622 1 1 0 1 -7.54777 0.931203 -0.957003
623 1 1 0 1 2.46532 4.38803 3.3926
624 1 1 0 1 -4.2276 4.86051 -0.541098
625 1 1 0 1 -1.69913 1.06963 4.40898
626 1 1 0 1 -1.07974 2.80533 4.97684
627 1 1 0 1 -8.19362 -4.2243 16.3939
628 1 1 0 1 2.09397 -1.83645 7.46098
629 1 1 0 1 1.34664 10.3553 20.7969
630 1 1 0 1 3.00339 15.6043 20.6632
631 1 1 0 1 3.21753 8.01225 14.8965
632 1 1 0 1 8.48411 8.08487 17.4705
633 1 1 0 1 -6.50917 10.1455 18.3125
634 1 1 0 1 -2.69692 2.21452 14.7291
635 1 1 0 1 2.05688 1.84509 18.8552
636 1 1 0 1 2.99317 -0.128912 19.5504
637 1 1 0 1 -8.87198 2.64742 19.9335
638 1 1 0 1 -1.74173 4.38024 24.5429
639 1 1 0 1 -2.56735 -1.54682 10.5361
640 1 1 0 1 -2.85121 16.9165 7.11109
641 1 1 0 1 12.2602 8.13127 -5.07696
642 1 1 0 1 2.71788 16.8637 15.3569
643 1 1 0 1 -1.5142 11.1112 15.4522
644 1 1 0 1 -3.20249 6.5182 1.96319
645 1 1 0 1 -1.09786 6.00547 5.28227
646 1 1 0 1 1.82682 3.83182 5.20499
647 1 1 0 1 -5.28746 11.0772 -0.106035
648 1 1 0 1 -4.0911 10.4601 13.0644
649 1 1 0 1 1.94302 4.4534 1.63626
650 1 1 0 1 4.09656 6.06514 10.7554
651 1 1 0 1 3.17914 7.9676 9.88631
652 1 1 0 1 -3.41249 10.541 18.0569
653 1 1 0 1 -2.2267 17.1261 10.6767
654 1 1 0 1 -1.89245 11.3636 16.7862
655 1 1 0 1 0.842828 5.86915 3.13397
656 1 1 0 1 -3.56932 3.12857 13.0841
657 1 1 0 1 2.27892 7.86252 16.8169
658 1 1 0 1 -0.720657 10.3821 21.2797
659 1 1 0 1 -8.93317 8.3601 13.5096
660 1 1 0 1 4.7003 8.89489 19.641
661 1 1 0 1 0.048553 5.83705 2.29344
662 1 1 0 1 -2.30989 12.2286 3.39915
663 1 1 0 1 -5.77141 7.60321 2.47819
664 1 1 0 1 -0.865658 9.40357 6.37562
665 1 1 0 1 -6.5388 0.471988 3.05846
666 1 1 0 1 8.64657 8.44433 9.88127
667 1 1 0 1 -3.42394 10.1959 -1.0037
668 1 1 0 1 -6.97377 4.88573 -0.138364
669 1 1 0 1 4.54796 2.65456 2.38406
670 1 1 0 1 -3.25464 3.54055 9.50243
671 1 1 0 1 1.65438 0.743594 4.25925
672 1 1 0 1 -2.51898 20.1916 13.1106
673 1 1 0 1 -9.16124 17.1556 12.6677
674 1 1 0 1 -1.78788 12.1395 17.4901
675 1 1 0 1 -0.569882 8.09249 18.3664
676 1 1 0 1 -4.68618 -0.850119 15.5436
677 1 1 0 1 0.122636 4.66856 15.5561
678 1 1 0 1 2.77651 7.19151 18.8649
679 1 1 0 1 -10.9793 9.0194 15.1158
680 1 1 0 1 0.818987 3.65604 15.0026
681 1 1 0 1 -5.29332 8.26417 17.9655
682 1 1 0 1 9.08737 6.72191 26.7568
683 1 1 0 1 -0.139756 11.3083 9.62203
684 1 1 0 1 -3.35239 7.64434 -0.830062
685 1 1 0 1 1.84815 10.4677 0.765169
686 1 1 0 1 -3.54652 6.25626 3.81514
687 1 1 0 1 -0.834555 15.1811 4.09518
688 1 1 0 1 -3.43754 15.5445 10.7236
689 1 1 0 1 -2.61848 4.71397 4.89389
690 1 1 0 1 2.11715 1.2597 12.8748
691 1 1 0 1 -0.0587796 8.00145 3.42468
692 1 1 0 1 -6.20722 8.83542 9.94591
693 1 1 0 1 -1.66688 3.70106 18.8367
694 1 1 0 1 -7.82348 11.2675 13.7667
695 1 1 0 1 -2.50945 8.71626 16.9652
696 1 1 0 1 -6.82355 6.50511 21.277
697 1 1 0 1 -1.47249 8.64061 18.3211
698 1 1 0 1 -5.89424 9.23938 13.9613
699 1 1 0 1 5.57505 8.03172 24.1904
700 1 1 0 1 2.89267 14.2646 20.401
701 1 1 0 1 -2.07417 11.2426 20.8502
702 1 1 0 1 -1.29194 7.19914 22.8988
703 1 1 0 1 -4.11471 15.7042 17.8788
704 1 1 0 1 8.44059 21.1061 17.9757
705 1 1 0 1 -0.20602 8.15301 4.86464
706 1 1 0 1 -0.826216 7.83671 -4.8994
707 1 1 0 1 -1.14501 29.0208 -0.153717
708 1 1 0 1 4.56249 4.14171 3.54173
709 1 1 0 1 -10.0325 12.8485 6.78775
710 1 1 0 1 -3.77088 11.4462 -2.5094
711 1 1 0 1 -4.61719 7.52384 4.58833
712 1 1 0 1 -0.683288 11.3522 16.2171
713 1 1 0 1 0.283911 12.4858 1.23767
714 1 1 0 1 -0.6347 15.3574 1.1737
715 1 1 0 1 -4.087 13.5167 16.6392
716 1 1 0 1 -3.91076 13.8611 19.2279
717 1 1 0 1 -2.76749 11.6215 20.0867
718 1 1 0 1 0.353286 11.4768 12.973
719 1 1 0 1 -6.95836 9.59773 13.5996
720 1 1 0 1 -2.26811 12.3646 24.433
721 1 1 0 1 -8.31712 12.5092 10.7672
722 1 1 0 1 3.86851 18.4344 28.0442
723 1 1 0 1 -5.78906 9.83529 17.4833
724 1 1 0 1 -1.89457 20.3476 23.1121
725 1 1 0 1 1.34978 11.7727 24.924
726 1 1 0 1 -9.91657 18.212 15.6755
727 1 1 0 1 6.84485 14.9119 2.63818
728 1 1 0 1 -0.649279 17.5466 -5.45126
729 1 1 0 1 -1.04791 4.88028 -6.58009
730 1 1 0 1 -4.20429 15.7814 7.58498
731 1 1 0 1 2.58893 19.6299 3.77271
732 1 1 0 1 6.03058 13.7358 6.59896
733 1 1 0 1 -5.12823 9.34068 6.11821
734 1 1 0 1 4.38242 4.60167 2.34486
735 1 1 0 1 -11.0327 14.8525 2.46956
736 1 1 0 1 -10.3982 18.3028 -0.551608
737 1 1 0 1 -3.35894 8.705 15.3325
738 1 1 0 1 8.41698 14.286 7.21197
739 1 1 0 1 -5.0657 4.08476 19.7304
740 1 1 0 1 -1.98901 6.68599 17.3354
741 1 1 0 1 -0.545699 8.78993 17.6407
742 1 1 0 1 2.11768 5.4388 24.909
743 1 1 0 1 -5.74373 8.01259 16.7659
744 1 1 0 1 4.12916 16.2297 28.132
745 1 1 0 1 -2.42752 9.68559 17.4935
746 1 1 0 1 -4.27679 12.9626 19.8117
747 1 1 0 1 3.8401 10.0479 25.5011
748 1 1 0 1 5.25738 13.0639 32.507
749 1 1 0 1 3.34731 9.56836 2.20862
750 1 1 0 1 -0.755104 10.5761 12.3406
751 1 1 0 1 -12.996 14.4153 11.6258
752 1 1 0 1 -5.70362 16.6054 12.1261
753 1 1 0 1 -2.47087 10.4211 14.8041
754 1 1 0 1 4.82598 9.41732 5.13217
755 1 1 0 1 -0.0212802 19.2206 1.71753
756 1 1 0 1 -7.46135 23.0211 0.803557
757 1 1 0 1 -4.1653 9.63581 12.0336
758 1 1 0 1 -3.86417 20.7663 8.78745
759 1 1 0 1 -0.632037 14.4225 6.27537
760 1 1 0 1 1.26232 0.612806 15.6838
761 1 1 0 1 -6.34301 15.777 19.2605
762 1 1 0 1 -7.2447 14.4901 5.63341
763 1 1 0 1 6.81413 18.9073 9.69781
764 1 1 0 1 -2.05941 21.3894 13.9727
765 1 1 0 1 2.5479 13.4463 18.1283
766 1 1 0 1 -6.30942 17.4344 15.4582
767 1 1 0 1 -12.5497 15.2401 19.6885
768 1 1 0 1 -8.04181 16.723 24.4777
769 1 1 0 1 8.16201 11.0392 20.7619
770 1 1 0 1 0.687145 17.1793 24.377
771 1 1 0 1 -2.61998 13.1592 6.07858
772 1 1 0 1 -1.09757 12.1591 13.9225
773 1 1 0 1 -3.2479 9.5244 1.15923
774 1 1 0 1 -4.47768 3.55619 12.0546
775 1 1 0 1 -5.57929 14.7415 -5.59021
776 1 1 0 1 -0.0134288 9.42969 11.5016
777 1 1 0 1 -0.517143 13.3101 11.1845
778 1 1 0 1 -2.73326 14.7103 11.2176
779 1 1 0 1 -0.510208 14.5565 24.701
780 1 1 0 1 -5.25116 17.4749 7.83851
781 1 1 0 1 2.35558 22.227 17.7562
782 1 1 0 1 2.86077 20.5233 14.7113
783 1 1 0 1 -3.67061 15.953 4.37417
784 1 1 0 1 -6.81835 18.0773 21.2204
785 1 1 0 1 -7.9925 27.228 17.4794
786 1 1 0 1 -5.15854 9.46906 19.4197
787 1 1 0 1 3.02445 9.8222 23.1271
788 1 1 0 1 -9.6598 20.7942 14.7393
789 1 1 0 1 -3.81385 14.553 20.1002
790 1 1 0 1 -6.54908 14.3969 23.737
791 1 1 0 1 -12.5759 14.8539 16.5432
792 1 1 0 1 -3.21329 7.47056 23.294
793 1 1 0 1 -7.94392 21.8449 6.61709
794 1 1 0 1 -3.75332 16.4638 6.22905
795 1 1 0 1 5.26335 23.6422 -4.89258
796 1 1 0 1 0.186054 16.0615 9.51501
797 1 1 0 1 -2.93582 21.8537 1.72871
798 1 1 0 1 2.56053 11.3992 -0.521482
799 1 1 0 1 -3.12636 15.014 5.837
800 1 1 0 1 4.37921 10.8973 3.29254
801 1 1 0 1 9.7713 12.2555 6.15088
802 1 1 0 1 -3.31993 23.1302 7.36599
803 1 1 0 1 1.78218 8.64955 17.0883
804 1 1 0 1 -1.08832 17.1541 8.95049
805 1 1 0 1 -11.1253 14.5422 18.1702
806 1 1 0 1 -2.13696 0.53717 1.08568
807 1 1 0 1 3.93568 19.2059 16.4023
808 1 1 0 1 -2.55253 18.6149 13.4655
809 1 1 0 1 -2.92182 16.7467 11.4339
810 1 1 0 1 -0.308937 16.2804 18.4754