ITEM: TIMESTEP
3000
ITEM: NUMBER OF ATOMS
6752
ITEM: BOX BOUNDS pp pp pp
0.0000000000000000e+00 2.2000000000000000e+01
0.0000000000000000e+00 2.2000000000000000e+01
0.0000000000000000e+00 2.2000000000000000e+01
ITEM: ATOMS id mol type q mass xu yu zu
1 1 1 0 1 -3.78572 -2.34895 -1.60901
2 1 1 0 1 -2.72804 0.645914 2.45586
3 1 1 0 1 -3.30531 3.1846 1.29979
4 1 1 0 1 -1.41763 0.764653 7.19456
5 1 1 0 1 -2.8369 0.616564 6.96003
6 1 1 0 1 -6.02641 3.62297 5.11082
7 1 1 0 1 -4.34585 5.6772 4.88478
8 1 1 0 1 -3.45983 -1.27319 7.54124
9 1 1 0 1 -1.52997 -0.565441 7.18886
10 1 1 0 1 -6.16698 5.37292 6.88227
11 1 1 0 1 -2.97439 4.517 9.67876
12 1 1 0 1 -1.14791 -0.196988 12.3003
13 1 1 0 1 -3.28342 0.569055 13.9151
14 1 1 0 1 -0.890234 5.59772 13.4115
15 1 1 0 1 -3.20596 4.43214 16.4981
16 1 1 0 1 -4.08863 -2.50245 14.0843
17 1 1 0 1 -2.07202 0.949168 14.4475
18 1 1 0 1 -1.44537 3.39988 19.7026
19 1 1 0 1 -1.30067 1.13685 19.7483
20 1 1 0 1 -2.96522 -2.10433 21.0298
21 1 1 0 1 -5.23459 5.43536 19.1202
22 1 1 0 1 -2.66544 6.12492 20.3054
23 1 1 0 1 -5.71146 4.66413 -0.0837001
24 1 1 0 1 -5.9897 2.65453 -0.715118
25 1 1 0 1 -3.81136 -1.41476 -0.530241
26 1 1 0 1 -1.26115 1.00723 3.40546
27 1 1 0 1 -1.26998 -0.0722696 4.24849
28 1 1 0 1 -3.36533 1.6685 2.91412
29 1 1 0 1 -1.76187 0.165627 7.9029
30 1 1 0 1 -1.37358 -0.48922 6.17301
31 1 1 0 1 -3.30634 3.49071 10.7835
32 1 1 0 1 -4.11892 2.51481 7.56825
33 1 1 0 1 -3.28187 2.13758 11.6668
34 1 1 0 1 -2.46318 1.89677 12.8705
35 1 1 0 1 -2.33301 -0.35025 12.5818
36 1 1 0 1 -0.774426 2.19462 10.6921
37 1 1 0 1 -4.57282 2.89864 15.8557
38 1 1 0 1 -1.42022 0.23525 18.2058
39 1 1 0 1 -2.53052 1.74843 16.6899
40 1 1 0 1 -2.68294 1.39019 20.2453
41 1 1 0 1 -5.28913 2.08741 16.3298
42 1 1 0 1 -6.16871 2.32412 22.2601
43 1 1 0 1 -1.87905 6.8346 20.363
44 1 1 0 1 -1.3757 4.65014 21.6021
45 1 1 0 1 -6.95813 5.52372 4.00584
46 1 1 0 1 -5.13679 10.0515 8.05632
47 1 1 0 1 -2.95522 2.44375 0.45503
48 1 1 0 1 -7.00811 4.58111 4.89335
49 1 1 0 1 -0.618961 2.04601 3.11015
50 1 1 0 1 -3.68226 5.75623 2.31855
51 1 1 0 1 -2.14908 4.22678 4.88462
52 1 1 0 1 -1.20577 5.25947 12.492
53 1 1 0 1 -3.96466 0.646478 9.22035
54 1 1 0 1 -3.08403 1.20879 11.024
55 1 1 0 1 -4.38897 3.34685 10.9166
56 1 1 0 1 -1.61234 1.36789 13.5251
57 1 1 0 1 -5.60302 5.99788 9.91106
58 1 1 0 1 -0.700542 4.70512 14.1848
59 1 1 0 1 -3.19171 3.34559 17.2279
60 1 1 0 1 -0.412908 0.369671 18.6483
61 1 1 0 1 -4.3313 6.14313 15.5963
62 1 1 0 1 -1.20052 1.18419 17.6218
63 1 1 0 1 -3.25645 9.08538 11.0631
64 1 1 0 1 -5.51189 4.7221 18.2234
65 1 1 0 1 -6.03575 4.84087 20.9211
66 1 1 0 1 -4.58043 4.94498 23.306
67 1 1 0 1 -5.58923 3.98118 2.06615
68 1 1 0 1 -1.70631 4.05569 -1.16183
69 1 1 0 1 0.420193 3.82005 1.415
70 1 1 0 1 -2.62609 4.94203 1.92999
71 1 1 0 1 0.36315 2.56199 4.30685
72 1 1 0 1 -2.85555 4.326 3.09061
73 1 1 0 1 -1.37597 3.56063 6.37709
74 1 1 0 1 -3.70271 3.8209 3.69667
75 1 1 0 1 -4.23451 3.13337 6.5584
76 1 1 0 1 -1.86437 0.993379 8.77107
77 1 1 0 1 -1.54076 2.60067 11.4602
78 1 1 0 1 -6.36691 3.19921 12.0007
79 1 1 0 1 -2.42905 2.75114 12.0372
80 1 1 0 1 -2.08171 5.41508 13.2628
81 1 1 0 1 -0.994986 5.12143 15.1581
82 1 1 0 1 -0.0896809 3.41453 15.1321
83 1 1 0 1 -1.25382 4.30315 16.727
84 1 1 0 1 -2.20306 3.552 16.9635
85 1 1 0 1 -1.53181 2.765 21.2456
86 1 1 0 1 -3.33442 5.01394 18.9846
87 1 1 0 1 -4.97666 2.59698 20.8145
88 1 1 0 1 -5.46258 6.35883 21.7435
89 1 1 0 1 -3.95872 9.43448 2.38754
90 1 1 0 1 -3.33557 9.13983 4.12824
91 1 1 0 1 -2.21521 3.0312 2.28009
92 1 1 0 1 -3.80281 9.78545 4.83572
93 1 1 0 1 -4.33875 7.49934 2.93302
94 1 1 0 1 -4.70773 5.4998 6.49334
95 1 1 0 1 -6.83596 7.9231 6.5618
96 1 1 0 1 -3.3024 5.64966 9.35183
97 1 1 0 1 -5.52148 7.06617 8.15021
98 1 1 0 1 -3.23251 3.57787 7.26356
99 1 1 0 1 -6.23602 5.58521 12.2937
100 1 1 0 1 -1.40836 4.47391 8.31183
101 1 1 0 1 -5.03466 5.07217 10.563
102 1 1 0 1 -5.11401 5.6956 12.3043
103 1 1 0 1 -4.1315 7.40335 13.5998
104 1 1 0 1 -1.97309 6.54745 16.167
105 1 1 0 1 -2.5123 6.83107 12.4768
106 1 1 0 1 -1.15361 1.98932 16.8992
107 1 1 0 1 -2.41252 7.53126 16.3267
108 1 1 0 1 -4.77344 9.6807 19.682
109 1 1 0 1 -4.09195 6.41155 18.0008
110 1 1 0 1 -7.08503 7.75208 23.676
111 1 1 0 1 -4.13734 2.46389 0.863305
112 1 1 0 1 -2.1844 6.05045 0.571948
113 1 1 0 1 -1.96503 10.4786 4.57745
114 1 1 0 1 -1.50399 5.23386 2.13019
115 1 1 0 1 -3.02843 7.32003 3.1672
116 1 1 0 1 -3.91811 6.3297 5.65604
117 1 1 0 1 -1.09846 7.55248 7.63965
118 1 1 0 1 -1.35197 5.27598 7.40168
119 1 1 0 1 -1.96397 2.13823 8.51855
120 1 1 0 1 -0.64738 3.22024 11.029
121 1 1 0 1 -3.93851 4.17402 10.1035
122 1 1 0 1 -5.87809 4.45475 12.1946
123 1 1 0 1 -2.60641 4.57104 12.1027
124 1 1 0 1 -1.54969 7.58655 13.9627
125 1 1 0 1 -6.96708 8.76186 14.1215
126 1 1 0 1 -4.55552 6.69773 16.5322
127 1 1 0 1 -2.53703 4.1353 18.2282
128 1 1 0 1 -4.91315 10.6115 15.368
129 1 1 0 1 -1.59978 3.87811 18.7656
130 1 1 0 1 -4.39251 3.8952 19.5655
131 1 1 0 1 -3.67329 4.18253 20.627
132 1 1 0 1 -5.03255 6.2368 23.8097
133 1 1 0 1 -5.25953 7.46575 0.218473
134 1 1 0 1 -4.06574 4.85375 4.1966
135 1 1 0 1 -3.83906 6.22102 1.1604
136 1 1 0 1 -4.57033 9.83838 3.28792
137 1 1 0 1 -8.00307 9.5813 6.58682
138 1 1 0 1 -9.37823 11.8753 5.98792
139 1 1 0 1 -0.703674 8.66454 7.07454
140 1 1 0 1 -0.649375 9.19865 5.81707
141 1 1 0 1 -1.01563 4.31662 7.3515
142 1 1 0 1 -1.61004 4.13616 10.68
143 1 1 0 1 -0.838404 4.50045 11.8567
144 1 1 0 1 -0.633292 5.43382 9.4575
145 1 1 0 1 -0.563801 7.0783 12.9694
146 1 1 0 1 -2.41743 7.28626 15.0035
147 1 1 0 1 -4.67611 11.8589 15.6752
148 1 1 0 1 -4.50067 10.1109 13.6681
149 1 1 0 1 -5.25277 9.16814 17.06
150 1 1 0 1 -2.93876 5.75373 17.9725
151 1 1 0 1 -2.57157 5.05261 19.6716
152 1 1 0 1 -3.41283 6.00786 19.3924
153 1 1 0 1 -1.71722 5.68763 19.7392
154 1 1 0 1 -1.72462 6.44583 23.4199
155 1 1 0 1 -2.49973 6.73453 -0.726533
156 1 1 0 1 -4.2991 6.64054 0.338891
157 1 1 0 1 -4.16453 8.86198 3.19758
158 1 1 0 1 -2.13364 7.64669 3.54106
159 1 1 0 1 -5.75348 8.88668 0.723736
160 1 1 0 1 -7.33536 9.5078 5.03889
161 1 1 0 1 -3.78898 10.5192 5.68788
162 1 1 0 1 0.243552 7.0766 5.75222
163 1 1 0 1 1.32495 8.61507 7.31095
164 1 1 0 1 -1.23131 7.96198 10.2349
165 1 1 0 1 -2.18658 8.97981 10.2884
166 1 1 0 1 -1.04203 7.41597 11.1376
167 1 1 0 1 -1.00128 8.02345 12.6288
168 1 1 0 1 -3.05337 8.76912 18.4791
169 1 1 0 1 -3.83879 10.2951 14.4662
170 1 1 0 1 -3.95875 10.8517 17.9639
171 1 1 0 1 -1.8691 9.5165 18.3641
172 1 1 0 1 -2.83756 6.6222 16.8475
173 1 1 0 1 -1.29242 5.25704 16.9647
174 1 1 0 1 -3.35806 5.24611 21.1649
175 1 1 0 1 -3.24586 7.36832 20.4687
176 1 1 0 1 -1.51569 8.10553 20.8263
177 1 1 0 1 -3.28373 7.68604 2.1186
178 1 1 0 1 -1.09718 9.362 0.767518
179 1 1 0 1 -4.55128 11.8838 4.61512
180 1 1 0 1 -3.85479 7.55837 0.871595
181 1 1 0 1 -3.53006 9.26134 5.83789
182 1 1 0 1 -2.97354 10.2232 4.11821
183 1 1 0 1 -2.14029 8.67608 3.75177
184 1 1 0 1 -1.88359 8.19973 9.35351
185 1 1 0 1 -1.15019 7.45958 8.92542
186 1 1 0 1 -7.02562 10.9305 8.34283
187 1 1 0 1 -7.58799 11.9715 11.8085
188 1 1 0 1 -1.76376 4.8112 11.588
189 1 1 0 1 -2.12483 11.5911 14.3057
190 1 1 0 1 -3.14388 10.0746 17.8619
191 1 1 0 1 -2.99461 11.365 18.1011
192 1 1 0 1 -4.19814 9.68294 18.1493
193 1 1 0 1 -3.85751 7.59495 18.3246
194 1 1 0 1 -5.59386 10.8504 18.0987
195 1 1 0 1 -3.6576 10.1396 18.9716
196 1 1 0 1 -3.90216 6.11001 20.5918
197 1 1 0 1 -2.61548 8.42826 20.4164
198 1 1 0 1 -0.668881 8.45072 22.8309
199 1 1 0 1 -1.75707 8.55881 1.32032
200 1 1 0 1 -2.81064 9.58223 1.38584
201 1 1 0 1 -5.59093 10.393 0.0311706
202 1 1 0 1 -2.85509 8.66888 2.02888
203 1 1 0 1 -2.89986 11.2782 4.084
204 1 1 0 1 -2.94729 10.7964 3.16751
205 1 1 0 1 -4.2912 8.90237 8.08105
206 1 1 0 1 1.25811 8.77165 8.378
207 1 1 0 1 -6.19886 6.21416 4.33708
208 1 1 0 1 -3.52899 7.03013 11.2219
209 1 1 0 1 -2.62346 7.88253 10.1656
210 1 1 0 1 -1.419 10.6355 13.4261
211 1 1 0 1 -2.02731 7.79136 11.1515
212 1 1 0 1 -2.64184 9.5958 12.6715
213 1 1 0 1 -1.65773 12.4813 16.7802
214 1 1 0 1 -6.06082 10.5962 17.0405
215 1 1 0 1 -3.59021 10.5639 19.9796
216 1 1 0 1 -6.37041 9.38075 21.552
217 1 1 0 1 -4.70138 12.0399 21.5634
218 1 1 0 1 -4.23319 8.4093 19.4144
219 1 1 0 1 -0.413767 9.96748 19.751
220 1 1 0 1 -0.727205 10.1396 22.1206
221 1 1 0 1 -2.07274 11.6215 -1.34949
222 1 1 0 1 -5.12604 9.7337 0.821016
223 1 1 0 1 -4.75133 14.6437 4.5993
224 1 1 0 1 -3.77177 11.7975 3.32657
225 1 1 0 1 -4.76736 10.3696 4.27785
226 1 1 0 1 -3.46322 13.4703 4.94895
227 1 1 0 1 -8.67621 11.0391 5.26213
228 1 1 0 1 -0.545132 10.4666 5.31062
229 1 1 0 1 -5.64186 8.89796 7.86658
230 1 1 0 1 -3.38341 6.8603 8.07336
231 1 1 0 1 -3.56161 7.649 11.9338
232 1 1 0 1 0.579057 9.32812 10.5679
233 1 1 0 1 -1.65445 8.73179 13.8693
234 1 1 0 1 -7.98692 8.04372 11.726
235 1 1 0 1 -2.2573 13.4983 16.2239
236 1 1 0 1 -5.78492 11.6274 15.996
237 1 1 0 1 -5.16354 10.0251 17.6629
238 1 1 0 1 -0.688217 12.4439 13.6678
239 1 1 0 1 -2.09372 12.0865 18.1665
240 1 1 0 1 -2.67468 12.7611 19.2073
241 1 1 0 1 -3.74038 11.6597 20.0029
242 1 1 0 1 -2.38842 9.35975 20.9056
243 1 1 0 1 -2.68352 10.2578 0.234984
244 1 1 0 1 -3.25853 11.4981 1.10984
245 1 1 0 1 -3.7142 13.9721 3.79847
246 1 1 0 1 -2.81381 14.4005 3.56504
247 1 1 0 1 -6.1695 11.1722 5.1097
248 1 1 0 1 -2.89471 8.35533 7.02028
249 1 1 0 1 -1.43756 10.9144 5.40419
250 1 1 0 1 -0.715117 10.495 7.55837
251 1 1 0 1 0.797173 9.39669 9.54512
252 1 1 0 1 -0.594933 8.5046 9.30825
253 1 1 0 1 -1.10217 6.29325 10.1663
254 1 1 0 1 -0.92325 9.84016 12.7273
255 1 1 0 1 -4.16424 9.48048 11.7372
256 1 1 0 1 -4.85608 12.8772 15.1885
257 1 1 0 1 -2.97627 9.6388 14.7922
258 1 1 0 1 -3.10549 11.9337 11.939
259 1 1 0 1 -2.74364 11.9256 17.1134
260 1 1 0 1 -2.6332 13.9938 13.6645
261 1 1 0 1 -2.12035 11.3653 19.0063
262 1 1 0 1 -3.03899 13.6285 20.4858
263 1 1 0 1 0.310361 12.4028 20.3126
264 1 1 0 1 -1.33547 14.2952 21.3918
265 1 1 0 1 -0.976392 13.6744 0.286543
266 1 1 0 1 -0.480144 14.8162 0.486169
267 1 1 0 1 -3.06891 14.6014 7.19994
268 1 1 0 1 -5.29443 11.7424 1.78218
269 1 1 0 1 -2.76106 10.9561 5.29239
270 1 1 0 1 -5.28869 11.0108 6.18103
271 1 1 0 1 -2.3199 11.7819 5.97222
272 1 1 0 1 -5.19232 9.13533 8.85425
273 1 1 0 1 -5.30049 11.3746 7.64683
274 1 1 0 1 -5.43692 7.21982 9.5469
275 1 1 0 1 -5.41385 7.89764 10.6953
276 1 1 0 1 -3.4492 10.5562 11.9387
277 1 1 0 1 -4.40915 10.8801 11.0503
278 1 1 0 1 -1.72531 13.9685 12.3945
279 1 1 0 1 -3.6616 12.3485 13.2464
280 1 1 0 1 -3.35494 13.1728 12.1163
281 1 1 0 1 -5.25466 13.3222 17.1604
282 1 1 0 1 -2.52237 12.8781 10.8581
283 1 1 0 1 -1.37475 13.9553 18.2495
284 1 1 0 1 -2.47177 14.6439 17.9068
285 1 1 0 1 -3.18799 12.5588 18.0809
286 1 1 0 1 -2.02962 12.3618 21.9498
287 1 1 0 1 -1.2216 14.5038 1.48779
288 1 1 0 1 -0.0272466 12.9527 3.80434
289 1 1 0 1 -4.83827 9.1458 5.20749
290 1 1 0 1 -3.83151 12.1623 2.01412
291 1 1 0 1 -3.7761 7.50435 6.31671
292 1 1 0 1 -2.48978 13.8533 7.68629
293 1 1 0 1 -0.171725 11.3177 5.55826
294 1 1 0 1 -1.24286 13.3221 6.5309
295 1 1 0 1 -1.51574 12.7313 8.16016
296 1 1 0 1 -1.14288 11.6593 10.1564
297 1 1 0 1 -2.66834 11.8201 9.91314
298 1 1 0 1 -4.27553 11.2028 12.3204
299 1 1 0 1 -0.838931 14.6697 13.7724
300 1 1 0 1 -0.538956 10.6175 15.2616
301 1 1 0 1 -2.38741 15.5198 12.9617
302 1 1 0 1 -3.91736 12.1093 14.2984
303 1 1 0 1 -3.46656 14.1736 15.9317
304 1 1 0 1 -1.34571 10.6357 8.47048
305 1 1 0 1 -3.66039 13.4307 16.8491
306 1 1 0 1 -3.39977 15.0302 17.7304
307 1 1 0 1 -2.52226 13.4825 17.721
308 1 1 0 1 -0.748502 15.7474 23.397
309 1 1 0 1 -4.95538 13.286 0.736087
310 1 1 0 1 -4.85949 14.0612 3.26342
311 1 1 0 1 -6.32732 14.8255 1.42368
312 1 1 0 1 -6.73629 13.9077 7.04714
313 1 1 0 1 -2.28868 14.799 6.44006
314 1 1 0 1 -3.81779 11.0637 4.80162
315 1 1 0 1 -0.991348 9.49811 8.09419
316 1 1 0 1 -4.8349 11.8205 5.63525
317 1 1 0 1 -2.5556 15.1068 8.20366
318 1 1 0 1 -3.07679 15.7001 9.12274
319 1 1 0 1 -4.41966 14.9337 11.2146
320 1 1 0 1 -1.87195 16.225 11.589
321 1 1 0 1 -2.57048 12.5379 14.5544
322 1 1 0 1 -1.62083 10.0629 11.8709
323 1 1 0 1 -5.20484 9.15684 10.4915
324 1 1 0 1 -2.74689 15.0086 13.7694
325 1 1 0 1 -3.89946 14.3834 13.7589
326 1 1 0 1 -6.8179 14.351 19.4633
327 1 1 0 1 -4.0388 13.6564 15.098
328 1 1 0 1 -5.22333 15.0525 15.8733
329 1 1 0 1 0.311171 13.587 20.8335
330 1 1 0 1 -0.193221 15.7627 21.7102
331 1 1 0 1 -2.95069 15.5907 -0.151509
332 1 1 0 1 -2.229 16.5193 2.54721
333 1 1 0 1 -2.03981 15.4063 3.6593
334 1 1 0 1 -3.47433 14.6017 4.52433
335 1 1 0 1 -1.07593 16.2502 6.0213
336 1 1 0 1 -7.29672 14.9507 6.32531
337 1 1 0 1 -1.47994 14.1234 7.22974
338 1 1 0 1 -3.79016 15.1515 7.62224
339 1 1 0 1 -2.10436 16.0145 8.59051
340 1 1 0 1 -2.80606 13.4807 8.93641
341 1 1 0 1 -3.54748 11.1562 9.3879
342 1 1 0 1 -2.45781 16.5578 12.6356
343 1 1 0 1 -3.36383 15.1772 12.6583
344 1 1 0 1 -4.30625 14.7813 15.023
345 1 1 0 1 -4.52338 14.9659 13.185
346 1 1 0 1 -0.50469 16.7906 15.4398
347 1 1 0 1 -4.96644 14.6502 18.3093
348 1 1 0 1 -2.42113 15.2785 14.8306
349 1 1 0 1 -0.943686 15.9739 17.6304
350 1 1 0 1 -2.69595 13.7902 18.795
351 1 1 0 1 -5.25845 13.013 19.146
352 1 1 0 1 -5.02702 13.7551 21.5439
353 1 1 0 1 -3.73786 12.721 4.0933
354 1 1 0 1 -4.22658 16.0711 3.13673
355 1 1 0 1 -5.71505 14.159 9.55625
356 1 1 0 1 -5.6647 13.1592 3.25592
357 1 1 0 1 -1.42175 16.3028 4.18382
358 1 1 0 1 -2.53359 13.7828 4.39677
359 1 1 0 1 -5.4438 15.2132 6.96909
360 1 1 0 1 -3.1675 14.2759 8.38215
361 1 1 0 1 -7.27296 14.8509 10.7247
362 1 1 0 1 -2.29709 16.5471 9.91888
363 1 1 0 1 -4.22049 16.3252 10.3248
364 1 1 0 1 -5.05839 16.8822 11.7888
365 1 1 0 1 -2.48412 10.1924 9.15083
366 1 1 0 1 -3.40246 15.7671 14.2655
367 1 1 0 1 -1.63781 15.1108 11.7126
368 1 1 0 1 -1.50459 15.1587 18.2762
369 1 1 0 1 -6.77862 15.3773 16.1755
370 1 1 0 1 -2.87343 10.6566 8.30417
371 1 1 0 1 -2.97954 15.9927 19.0817
372 1 1 0 1 -4.0469 13.125 15.946
373 1 1 0 1 -2.36228 12.8175 20.7243
374 1 1 0 1 -1.92539 13.5201 22.9242
375 1 1 0 1 -6.60703 13.6936 1.26716
376 1 1 0 1 -5.57685 11.5611 4.24432
377 1 1 0 1 -5.93187 15.077 5.06646
378 1 1 0 1 -2.35433 16.7478 4.74258
379 1 1 0 1 -4.93838 16.2867 4.03604
380 1 1 0 1 -4.4315 15.9485 7.88843
381 1 1 0 1 -4.19637 17.1053 6.61759
382 1 1 0 1 -5.91408 17.858 8.63802
383 1 1 0 1 -2.07097 18.7166 9.55147
384 1 1 0 1 -4.15422 16.3564 9.04359
385 1 1 0 1 -3.89743 17.8017 11.1706
386 1 1 0 1 -1.94037 17.346 10.914
387 1 1 0 1 -4.07572 16.7232 11.4302
388 1 1 0 1 -3.06225 17.8441 14.708
389 1 1 0 1 -4.08244 16.1716 13.2061
390 1 1 0 1 -1.73175 14.9824 17.1773
391 1 1 0 1 -2.55688 16.8251 15.1188
392 1 1 0 1 -5.65859 15.8744 14.4444
393 1 1 0 1 -7.07963 11.7832 13.7736
394 1 1 0 1 -5.96854 15.4331 17.7444
395 1 1 0 1 -5.48345 14.3357 17.5782
396 1 1 0 1 -3.7764 13.4452 22.9404
397 1 1 0 1 -1.95276 16.1905 -0.128056
398 1 1 0 1 -1.79177 19.1029 1.68069
399 1 1 0 1 -3.24789 15.3154 2.95576
400 1 1 0 1 -5.6453 14.9603 3.75209
401 1 1 0 1 -2.63486 12.3489 8.47917
402 1 1 0 1 -2.83737 15.0396 5.39493
403 1 1 0 1 -0.845653 11.5116 7.75708
404 1 1 0 1 -3.38814 15.9412 6.83537
405 1 1 0 1 -4.51595 16.9303 7.53876
406 1 1 0 1 -2.67448 19.3206 8.48566
407 1 1 0 1 -4.50282 17.3005 8.62437
408 1 1 0 1 -5.19188 18.1658 11.0224
409 1 1 0 1 -4.47703 15.7404 14.4144
410 1 1 0 1 -3.0936 13.1839 15.6132
411 1 1 0 1 -1.50702 15.3525 13.9513
412 1 1 0 1 -5.17775 13.5287 12.8368
413 1 1 0 1 -3.79086 15.215 18.9659
414 1 1 0 1 -2.461 16.0589 18.2828
415 1 1 0 1 -1.10044 18.0285 18.2148
416 1 1 0 1 -1.16235 15.8966 20.4454
417 1 1 0 1 1.38739 17.0232 22.9756
418 1 1 0 1 0.670616 15.3148 22.4175
419 1 1 0 1 -4.00074 18.0204 1.84298
420 1 1 0 1 -2.93469 21.2395 6.11833
421 1 1 0 1 -2.72178 17.0816 6.60512
422 1 1 0 1 -4.45925 15.5469 5.02505
423 1 1 0 1 -1.51119 19.7758 5.50263
424 1 1 0 1 -2.12343 17.0758 7.91656
425 1 1 0 1 -3.4676 20.7337 4.65276
426 1 1 0 1 -3.60223 16.9475 8.17196
427 1 1 0 1 -2.24735 18.0531 7.24123
428 1 1 0 1 -3.20761 21.3993 9.71312
429 1 1 0 1 -2.80708 21.5527 10.9704
430 1 1 0 1 -1.13955 19.6511 10.9776
431 1 1 0 1 -2.49621 20.0877 13.3127
432 1 1 0 1 -1.28307 20.9994 15.3268
433 1 1 0 1 -3.07352 16.9779 13.3398
434 1 1 0 1 -4.0184 18.5807 14.5396
435 1 1 0 1 -4.99112 15.0426 17.0164
436 1 1 0 1 -4.16885 19.3316 12.5924
437 1 1 0 1 -2.86552 19.3329 15.0479
438 1 1 0 1 -1.50608 18.8409 17.3524
439 1 1 0 1 -5.32164 19.845 16.7868
440 1 1 0 1 -3.52058 16.8964 25.0588
441 1 1 0 1 -3.33417 14.4708 1.53273
442 1 1 0 1 -0.665729 18.0082 3.8959
443 1 1 0 1 -4.8658 19.3711 3.24007
444 1 1 0 1 -0.288461 23.7273 4.55284
445 1 1 0 1 -3.29733 17.3416 4.73471
446 1 1 0 1 -2.77331 10.1557 11.1247
447 1 1 0 1 -3.60979 18.7932 5.4109
448 1 1 0 1 -7.18367 16.2589 6.86679
449 1 1 0 1 -3.17919 18.5173 9.63205
450 1 1 0 1 -4.03225 17.8328 9.98572
451 1 1 0 1 -5.39063 20.3502 9.92535
452 1 1 0 1 -4.69344 20.7035 12.919
453 1 1 0 1 -6.01473 17.7127 11.4924
454 1 1 0 1 -3.34831 21.8166 15.4993
455 1 1 0 1 -6.26864 8.68256 11.2711
456 1 1 0 1 -4.61651 16.7457 14.0038
457 1 1 0 1 -3.40478 23.4673 15.9328
458 1 1 0 1 -5.94339 20.3221 17.399
459 1 1 0 1 -2.63112 18.1779 15.6628
460 1 1 0 1 -1.77745 15.1982 21.4507
461 1 1 0 1 -2.61114 21.2666 16.2568
462 1 1 0 1 -3.62471 21.9591 23.9264
463 1 1 0 1 -0.976445 23.6387 -0.971721
464 1 1 0 1 -3.02728 18.4361 1.20579
465 1 1 0 1 -0.766377 24.4572 6.11249
466 1 1 0 1 -1.39765 22.9903 4.51617
467 1 1 0 1 -4.99419 20.3539 5.20351
468 1 1 0 1 -4.0237 19.8154 4.83741
469 1 1 0 1 -1.71877 18.5928 6.12892
470 1 1 0 1 -3.54912 23.3124 5.75318
471 1 1 0 1 -3.60829 17.7986 7.06932
472 1 1 0 1 -3.73415 21.9195 8.35444
473 1 1 0 1 -2.87484 22.2721 11.8945
474 1 1 0 1 -5.27348 19.1349 11.4342
475 1 1 0 1 -1.88233 21.9226 14.7231
476 1 1 0 1 -3.72102 21.342 13.9986
477 1 1 0 1 -2.74495 21.3552 14.5762
478 1 1 0 1 -3.47141 21.2777 16.9492
479 1 1 0 1 -0.278859 23.6209 17.067
480 1 1 0 1 -1.00257 23.8972 12.5338
481 1 1 0 1 -1.27044 18.4077 19.4175
482 1 1 0 1 -2.52102 23.0456 19.1262
483 1 1 0 1 -1.70494 21.604 20.2216
484 1 1 0 1 -1.20641 21.5937 23.671
485 1 1 0 1 -3.11044 -1.42942 2.49522
486 1 1 0 1 -2.20902 0.520347 0.326206
487 1 1 0 1 -2.13047 -0.481009 2.25391
488 1 1 0 1 -0.53984 -0.52836 3.46871
489 1 1 0 1 -0.181046 1.61717 7.79651
490 1 1 0 1 -1.64103 2.34822 2.83438
491 1 1 0 1 0.558128 2.21058 8.42485
492 1 1 0 1 -1.40036 -0.955215 8.44015
493 1 1 0 1 -0.687682 0.706693 8.21222
494 1 1 0 1 -3.58439 1.48698 6.87627
495 1 1 0 1 -3.83936 0.972527 11.9032
496 1 1 0 1 1.25971 -1.01943 11.152
497 1 1 0 1 0.655129 0.275565 12.0915
498 1 1 0 1 -0.982996 0.935917 14.2934
499 1 1 0 1 -2.64803 1.89707 15.2398
500 1 1 0 1 -0.845728 -0.567358 14.4607
501 1 1 0 1 1.04264 -1.32862 14.2132
502 1 1 0 1 -1.87775 -1.32113 18.8062
503 1 1 0 1 -1.06806 0.0712362 19.4099
504 1 1 0 1 -2.49822 -2.11571 18.413
505 1 1 0 1 -2.59593 0.0352687 17.054
506 1 1 0 1 -5.59956 1.40843 23.119
507 1 1 0 1 -1.07399 1.07912 0.119694
508 1 1 0 1 -1.38515 1.32459 1.12357
509 1 1 0 1 -0.61502 2.56136 -0.315096
510 1 1 0 1 -0.174513 1.44765 1.46028
511 1 1 0 1 0.308518 2.53025 5.32622
512 1 1 0 1 0.608009 4.17714 6.9213
513 1 1 0 1 -2.89278 0.803647 8.06376
514 1 1 0 1 -2.6297 1.50154 6.45677
515 1 1 0 1 0.671732 2.3206 7.39339
516 1 1 0 1 -2.27004 0.497281 10.7577
517 1 1 0 1 -2.82574 1.48572 9.9151
518 1 1 0 1 0.158037 1.89759 12.8454
519 1 1 0 1 -0.55317 0.928266 13.0265
520 1 1 0 1 -1.50449 0.921308 11.9055
521 1 1 0 1 -0.22886 2.22445 13.7678
522 1 1 0 1 -0.421821 2.09999 16.0783
523 1 1 0 1 0.145528 2.23347 18.0755
524 1 1 0 1 -0.429372 0.544423 17.6532
525 1 1 0 1 -1.80631 2.26281 19.6476
526 1 1 0 1 -1.06232 -1.54559 19.5697
527 1 1 0 1 0.613679 -0.864926 19.662
528 1 1 0 1 0.7472 0.966032 23.7244
529 1 1 0 1 -0.757748 2.44043 1.23898
530 1 1 0 1 -3.6077 0.958443 -2.56996
531 1 1 0 1 -1.47437 1.06502 2.4125
532 1 1 0 1 -4.14457 2.31269 -0.335529
533 1 1 0 1 0.487854 2.4597 3.00849
534 1 1 0 1 -0.881352 1.94603 2.04685
535 1 1 0 1 1.34124 3.67804 5.92715
536 1 1 0 1 -4.01729 4.13278 6.52313
537 1 1 0 1 -3.02781 1.5749 8.77178
538 1 1 0 1 -4.60924 1.12068 7.30796
539 1 1 0 1 -3.48129 2.23042 13.4606
540 1 1 0 1 -0.504789 2.55072 11.7608
541 1 1 0 1 -2.73926 4.97946 14.3315
542 1 1 0 1 -0.457388 1.95923 14.7332
543 1 1 0 1 -3.22468 2.5221 15.969
544 1 1 0 1 0.416585 2.71543 16.5442
545 1 1 0 1 -2.96958 2.49224 20.24
546 1 1 0 1 0.487544 0.165086 17.3824
547 1 1 0 1 -5.40587 1.03482 19.1678
548 1 1 0 1 -2.74894 3.13053 21.2851
549 1 1 0 1 -0.253435 1.28673 19.9482
550 1 1 0 1 1.7857 1.79051 21.6679
551 1 1 0 1 -2.25392 3.48395 1.06609
552 1 1 0 1 -0.216989 4.43135 0.0399088
553 1 1 0 1 -1.02955 4.03585 1.94965
554 1 1 0 1 0.650567 5.18832 1.51905
555 1 1 0 1 -1.27804 4.47752 4.12574
556 1 1 0 1 -1.63343 3.26226 5.0911
557 1 1 0 1 -2.4451 4.11704 6.79292
558 1 1 0 1 -4.1054 2.91659 8.64483
559 1 1 0 1 -2.38117 3.47809 7.78259
560 1 1 0 1 -3.68147 1.45322 7.91549
561 1 1 0 1 -2.4973 0.773618 13.0983
562 1 1 0 1 -2.32602 3.67242 11.3743
563 1 1 0 1 -3.48438 3.20296 11.757
564 1 1 0 1 -1.80879 3.79607 13.6683
565 1 1 0 1 -1.77732 4.47718 14.4494
566 1 1 0 1 1.46521 3.84274 14.0677
567 1 1 0 1 1.8913 4.54494 16.8923
568 1 1 0 1 0.633858 3.83175 16.4842
569 1 1 0 1 -0.290132 3.40264 18.8927
570 1 1 0 1 -0.666664 2.41394 19.8646
571 1 1 0 1 2.87914 2.114 21.7819
572 1 1 0 1 3.13849 2.46063 20.8083
573 1 1 0 1 0.328207 5.5087 -0.0679853
574 1 1 0 1 -2.40744 2.65733 3.84301
575 1 1 0 1 -3.87739 4.08139 1.58222
576 1 1 0 1 -2.14408 4.16636 0.260272
577 1 1 0 1 -2.55633 3.68533 3.8293
578 1 1 0 1 -2.66732 6.4811 5.05235
579 1 1 0 1 -2.93038 6.0719 6.23076
580 1 1 0 1 -3.23148 4.65029 8.06603
581 1 1 0 1 -4.35624 7.57409 7.48113
582 1 1 0 1 0.829771 5.51723 8.76933
583 1 1 0 1 -3.57519 2.27461 9.31572
584 1 1 0 1 -3.8301 4.16974 12.1172
585 1 1 0 1 -2.60861 8.12809 13.7102
586 1 1 0 1 -3.31719 6.83382 15.2997
587 1 1 0 1 -1.76425 6.61441 13.5808
588 1 1 0 1 -3.49662 3.70362 15.6985
589 1 1 0 1 -3.82145 3.13573 20.7813
590 1 1 0 1 -1.28869 3.18362 22.4908
591 1 1 0 1 -3.49643 5.19588 15.1689
592 1 1 0 1 0.203079 4.67707 19.887
593 1 1 0 1 -2.98268 3.59097 20.1164
594 1 1 0 1 -0.926505 3.68908 21.5441
595 1 1 0 1 -0.264169 4.27841 -0.869012
596 1 1 0 1 -2.99194 3.86501 2.02308
597 1 1 0 1 -2.10259 4.21448 2.27305
598 1 1 0 1 1.4028 6.26681 2.30609
599 1 1 0 1 -0.146355 4.03294 2.86887
600 1 1 0 1 1.66003 6.3621 4.42537
601 1 1 0 1 -0.632391 6.32895 7.476
602 1 1 0 1 0.279421 6.27277 8.23886
603 1 1 0 1 1.31904 3.39982 10.2481
604 1 1 0 1 2.22553 6.3916 9.31564
605 1 1 0 1 0.962152 4.44672 9.86793
606 1 1 0 1 -1.05225 2.95356 13.6294
607 1 1 0 1 0.423711 7.05883 12.5794
608 1 1 0 1 -2.24144 5.27517 10.5495
609 1 1 0 1 1.01633 6.78303 15.2527
610 1 1 0 1 -0.0743871 4.65769 15.3315
611 1 1 0 1 -0.408053 4.76089 17.2374
612 1 1 0 1 -1.56766 4.44705 17.8706
613 1 1 0 1 -0.151432 3.78205 20.223
614 1 1 0 1 -0.679214 4.37923 19.4215
615 1 1 0 1 -2.42136 5.31348 21.1264
616 1 1 0 1 0.54473 5.55769 19.0458
617 1 1 0 1 0.678159 4.5281 0.534427
618 1 1 0 1 -6.17052 7.25891 0.289498
619 1 1 0 1 -4.37713 6.09047 3.12115
620 1 1 0 1 -2.13638 7.07603 5.92551
621 1 1 0 1 -2.75624 5.28639 3.8539
622 1 1 0 1 -3.70131 7.58702 5.03169
623 1 1 0 1 -1.70307 5.39863 3.22073
624 1 1 0 1 -0.179018 4.98074 6.82744
625 1 1 0 1 -2.28215 6.31949 11.605
626 1 1 0 1 -2.77933 6.05578 7.58138
627 1 1 0 1 -1.30454 4.65049 13.3175
628 1 1 0 1 -0.695266 5.5852 8.3392
629 1 1 0 1 -1.38719 6.29125 12.4352
630 1 1 0 1 0.553211 8.30806 15.2877
631 1 1 0 1 -5.59915 10.8809 13.9923
632 1 1 0 1 -2.58111 5.5615 16.6497
633 1 1 0 1 -4.97236 10.1022 16.3705
634 1 1 0 1 -1.87436 6.52717 17.5984
635 1 1 0 1 -3.11823 6.7221 18.6189
636 1 1 0 1 -0.195358 4.47791 18.4583
637 1 1 0 1 -4.55125 5.86478 21.5917
638 1 1 0 1 -2.19846 7.59498 22.3522
639 1 1 0 1 -2.93184 5.69065 1.24234
640 1 1 0 1 -0.138951 6.46232 0.0825158
641 1 1 0 1 -0.858469 5.84678 1.43452
642 1 1 0 1 -3.0249 6.70399 1.53618
643 1 1 0 1 -1.64332 10.3549 2.42546
644 1 1 0 1 -2.9928 8.5349 5.06785
645 1 1 0 1 -0.0162516 8.04652 5.51238
646 1 1 0 1 -0.153548 7.20542 8.03771
647 1 1 0 1 0.154393 7.70284 7.21443
648 1 1 0 1 -0.242202 8.75779 11.1705
649 1 1 0 1 -0.393238 6.60233 8.9974
650 1 1 0 1 1.44826 7.58583 13.7512
651 1 1 0 1 0.601412 8.51595 12.4005
652 1 1 0 1 -0.634187 8.55405 14.9505
653 1 1 0 1 -2.57627 10.4088 13.4198
654 1 1 0 1 -1.35112 7.59084 16.8291
655 1 1 0 1 -2.4377 8.19332 17.8856
656 1 1 0 1 -1.53802 5.5265 18.4755
657 1 1 0 1 -0.632138 5.5497 19.1962
658 1 1 0 1 -2.43416 5.98074 18.874
659 1 1 0 1 -0.712636 6.35462 19.9563
660 1 1 0 1 -1.59647 6.07131 21.7034
661 1 1 0 1 -3.07982 8.56396 0.8739
662 1 1 0 1 -0.910223 9.07414 -1.96464
663 1 1 0 1 0.391333 7.08111 0.777896
664 1 1 0 1 -1.29382 9.66032 3.81202
665 1 1 0 1 -1.38227 6.26449 5.25357
666 1 1 0 1 -1.77099 5.95608 6.70447
667 1 1 0 1 -1.90127 7.28672 4.8336
668 1 1 0 1 -3.01985 7.01182 7.09048
669 1 1 0 1 2.53562 8.57749 7.03652
670 1 1 0 1 0.393134 8.21674 8.03451
671 1 1 0 1 0.060127 6.51135 10.0692
672 1 1 0 1 -0.361936 8.8205 12.8086
673 1 1 0 1 -0.770866 6.3905 14.1372
674 1 1 0 1 -1.13697 8.96956 15.9039
675 1 1 0 1 -1.53974 10.2224 14.5471
676 1 1 0 1 -3.06102 7.37294 17.6542
677 1 1 0 1 -0.74709 10.1048 18.3112
678 1 1 0 1 -0.738853 6.39047 18.3819
679 1 1 0 1 -3.02714 9.73307 20.0417
680 1 1 0 1 -1.96284 7.33244 18.7983
681 1 1 0 1 -1.04617 6.88897 21.3912
682 1 1 0 1 -0.252764 7.49376 21.9059
683 1 1 0 1 -1.00512 9.10949 2.36889
684 1 1 0 1 -1.1933 8.12903 0.0521679
685 1 1 0 1 -1.0098 12.2458 1.41835
686 1 1 0 1 -0.637477 8.26899 1.91945
687 1 1 0 1 -3.59188 11.0185 2.27059
688 1 1 0 1 -1.60058 11.6775 3.92561
689 1 1 0 1 -0.136064 10.0796 6.8891
690 1 1 0 1 -0.556998 8.43374 8.08438
691 1 1 0 1 0.200983 9.08435 8.68393
692 1 1 0 1 2.20735 9.60548 10.4438
693 1 1 0 1 -2.94523 5.79521 13.7958
694 1 1 0 1 -2.3461 8.6829 11.9631
695 1 1 0 1 0.36578 6.5011 13.9415
696 1 1 0 1 -0.271397 9.87034 15.9775
697 1 1 0 1 -1.59865 8.85292 17.0765
698 1 1 0 1 -3.12452 11.6928 15.9884
699 1 1 0 1 -1.01317 9.34972 18.9708
700 1 1 0 1 -2.76593 14.4661 16.8363
701 1 1 0 1 -3.13749 11.4685 19.1499
702 1 1 0 1 -1.43412 10.4326 19.01
703 1 1 0 1 -0.62523 11.2059 20.1564
704 1 1 0 1 -0.486285 13.2941 21.4118
705 1 1 0 1 -2.02229 9.12621 0.276398
706 1 1 0 1 -4.36488 8.125 2.16575
707 1 1 0 1 -2.85895 12.0351 2.59559
708 1 1 0 1 -0.741616 9.88272 3.0275
709 1 1 0 1 -2.49506 12.5173 1.82025
710 1 1 0 1 -0.893433 12.4713 3.97146
711 1 1 0 1 -0.569192 11.1615 4.50876
712 1 1 0 1 -2.63447 9.82803 5.56299
713 1 1 0 1 0.106523 11.427 6.81617
714 1 1 0 1 0.244124 9.19676 7.71016
715 1 1 0 1 -1.4093 8.92142 11.1081
716 1 1 0 1 -1.63878 12.827 14.2389
717 1 1 0 1 0.581264 10.3252 15.4125
718 1 1 0 1 -1.1465 9.61136 13.8312
719 1 1 0 1 -2.03109 11.1701 17.7242
720 1 1 0 1 -3.79394 12.295 16.6238
721 1 1 0 1 -1.00637 11.1525 18.1572
722 1 1 0 1 -1.53134 12.9452 17.8169
723 1 1 0 1 -2.66711 10.0231 18.9766
724 1 1 0 1 -3.80957 12.3534 19.2532
725 1 1 0 1 -0.305289 10.968 21.2804
726 1 1 0 1 -1.68608 12.8617 19.8787
727 1 1 0 1 -2.16596 11.8159 0.987473
728 1 1 0 1 -1.59581 10.5119 0.887084
729 1 1 0 1 -4.63362 10.2142 1.87417
730 1 1 0 1 -0.961993 10.8227 1.81907
731 1 1 0 1 -2.79915 9.60757 2.76159
732 1 1 0 1 -1.9636 10.6114 3.57585
733 1 1 0 1 -0.859118 11.2313 3.13593
734 1 1 0 1 -1.02783 10.7601 6.50566
735 1 1 0 1 0.421851 12.3784 6.42739
736 1 1 0 1 -2.98735 11.6648 7.68645
737 1 1 0 1 -1.78968 10.7802 9.68674
738 1 1 0 1 2.67592 12.073 12.7852
739 1 1 0 1 0.0597578 9.54327 13.2737
740 1 1 0 1 -0.623166 10.4975 17.3293
741 1 1 0 1 -2.10985 10.7261 15.1921
742 1 1 0 1 -4.93891 10.9215 17.1207
743 1 1 0 1 -0.733921 11.885 16.8347
744 1 1 0 1 -3.53696 10.1865 21.1328
745 1 1 0 1 0.572476 11.7629 19.3663
746 1 1 0 1 -2.22054 10.4916 19.8437
747 1 1 0 1 0.581447 10.5027 21.9502
748 1 1 0 1 -0.143375 12.1529 21.1463
749 1 1 0 1 -1.62487 12.3071 2.72472
750 1 1 0 1 0.265048 12.6192 2.11907
751 1 1 0 1 -1.46622 13.3769 1.77274
752 1 1 0 1 -1.34828 14.7969 3.04178
753 1 1 0 1 1.14979 11.7371 4.17384
754 1 1 0 1 -2.10572 11.2969 2.86529
755 1 1 0 1 -1.27569 11.849 6.25231
756 1 1 0 1 -0.556859 12.2163 6.93728
757 1 1 0 1 0.0609472 12.2091 8.30806
758 1 1 0 1 -1.62285 12.5245 7.08931
759 1 1 0 1 -3.12571 11.1719 11.0585
760 1 1 0 1 0.999694 10.6715 11.9976
761 1 1 0 1 1.78146 11.6908 14.5976
762 1 1 0 1 0.334873 14.0255 14.9859
763 1 1 0 1 -1.8551 13.0053 15.3417
764 1 1 0 1 -0.196304 13.7512 16.0559
765 1 1 0 1 -1.51392 13.0177 18.8953
766 1 1 0 1 -0.931141 13.2932 16.8798
767 1 1 0 1 -1.27115 11.883 18.9487
768 1 1 0 1 0.00773951 11.3084 17.5873
769 1 1 0 1 1.12535 11.31 21.3825
770 1 1 0 1 0.0860808 12.6703 22.1111
771 1 1 0 1 -0.455375 12.9421 0.892593
772 1 1 0 1 -0.243458 13.5631 1.72754
773 1 1 0 1 -2.63366 13.6278 1.77297
774 1 1 0 1 0.593024 15.3413 3.03962
775 1 1 0 1 -0.870313 13.4194 3.28632
776 1 1 0 1 -3.62365 12.6593 7.14528
777 1 1 0 1 -1.03156 14.615 4.90371
778 1 1 0 1 -0.155223 11.7049 9.51578
779 1 1 0 1 -0.76464 13.632 10.476
780 1 1 0 1 -1.57585 13.0298 10.3155
781 1 1 0 1 0.203261 12.4858 11.6179
782 1 1 0 1 -0.413378 10.9679 13.345
783 1 1 0 1 -0.649651 13.8531 12.871
784 1 1 0 1 -1.50875 13.5554 13.452
785 1 1 0 1 -1.22066 13.977 15.5983
786 1 1 0 1 -2.87141 14.262 14.8505
787 1 1 0 1 0.205344 15.3179 17.1783
788 1 1 0 1 -2.27428 14.7088 15.9826
789 1 1 0 1 -1.88346 13.9984 17.1498
790 1 1 0 1 1.33702 11.9721 20.1354
791 1 1 0 1 0.429945 11.4048 20.5043
792 1 1 0 1 -0.88841 12.3025 22.032
793 1 1 0 1 -4.88844 12.7442 1.76553
794 1 1 0 1 1.81815 15.6824 1.24968
795 1 1 0 1 1.25924 16.159 2.5231
796 1 1 0 1 -2.2521 14.2809 2.52389
797 1 1 0 1 -2.00508 14.3267 5.16584
798 1 1 0 1 -3.1541 15.667 4.26631
799 1 1 0 1 -1.07983 13.7825 8.37581
800 1 1 0 1 -1.507 11.8148 9.01017
801 1 1 0 1 -0.80342 13.8682 9.40013
802 1 1 0 1 -3.02862 16.0137 7.97043
803 1 1 0 1 -1.587 12.0941 13.1021
804 1 1 0 1 -1.7775 14.6843 13.315
805 1 1 0 1 0.622572 12.8251 14.0521
806 1 1 0 1 1.26091 10.6592 10.9144
807 1 1 0 1 -1.62012 14.3261 14.333
808 1 1 0 1 -0.850508 16.3485 13.8295
809 1 1 0 1 -1.42511 14.9442 15.2348