ITEM: TIMESTEP
14000
ITEM: NUMBER OF ATOMS
6752
ITEM: BOX BOUNDS pp pp pp
0.0000000000000000e+00 2.2000000000000000e+01
0.0000000000000000e+00 2.2000000000000000e+01
0.0000000000000000e+00 2.2000000000000000e+01
ITEM: ATOMS id mol type q mass xu yu zu
1 1 1 0 1 -2.35126 -5.50189 4.11954
2 1 1 0 1 -3.01495 2.10124 1.06394
3 1 1 0 1 -3.58425 1.95615 6.67644
4 1 1 0 1 -8.14581 -3.65091 6.65137
5 1 1 0 1 -0.318254 5.36756 1.96697
6 1 1 0 1 -7.28606 0.582421 9.43556
7 1 1 0 1 -2.11195 6.04168 3.97042
8 1 1 0 1 1.95788 -4.8288 12.6536
9 1 1 0 1 -0.268613 0.805465 12.1605
10 1 1 0 1 -9.74684 0.392457 10.94
11 1 1 0 1 -0.438894 2.9063 7.28953
12 1 1 0 1 -6.75702 -3.1909 13.3986
13 1 1 0 1 0.304293 2.58642 12.9034
14 1 1 0 1 -0.974597 10.3544 13.5171
15 1 1 0 1 -9.20985 4.78318 10.8797
16 1 1 0 1 -4.99039 -2.54868 13.8638
17 1 1 0 1 0.633059 1.58354 16.1849
18 1 1 0 1 -2.93752 -0.846977 21.7632
19 1 1 0 1 -0.830571 6.48881 18.1523
20 1 1 0 1 1.37802 -1.28415 19.4299
21 1 1 0 1 -4.76722 5.03428 15.4295
22 1 1 0 1 -6.1611 11.1941 18.6493
23 1 1 0 1 -7.57166 -1.17787 4.53341
24 1 1 0 1 -6.03181 1.72644 0.674017
25 1 1 0 1 -2.11667 -2.56839 -5.61538
26 1 1 0 1 1.88199 0.340489 7.18466
27 1 1 0 1 -8.60163 -0.011444 11.5499
28 1 1 0 1 -4.90641 4.28065 1.95831
29 1 1 0 1 -3.69126 -1.52315 11.7392
30 1 1 0 1 -5.75799 1.20935 11.4106
31 1 1 0 1 -2.95496 4.41896 12.3104
32 1 1 0 1 -6.29663 -4.08119 6.46077
33 1 1 0 1 -6.16636 4.28989 13.418
34 1 1 0 1 -0.867894 3.34059 14.461
35 1 1 0 1 -2.7466 0.878923 12.2916
36 1 1 0 1 2.03499 1.30992 7.45878
37 1 1 0 1 -6.13569 -0.295066 16.6624
38 1 1 0 1 1.94873 -1.06391 21.1917
39 1 1 0 1 -0.864444 2.16745 10.2323
40 1 1 0 1 -1.87772 6.16094 22.127
41 1 1 0 1 -6.99637 0.573139 11.5966
42 1 1 0 1 -9.93254 -0.862493 25.8202
43 1 1 0 1 -2.59104 11.6688 23.1842
44 1 1 0 1 -1.98329 8.87334 17.3811
45 1 1 0 1 -12.0848 8.35395 9.19539
46 1 1 0 1 -3.63698 6.33726 10.0942
47 1 1 0 1 -0.819925 1.64344 -3.24232
48 1 1 0 1 -10.7673 5.05865 1.4418
49 1 1 0 1 0.0560753 4.09795 -1.04097
50 1 1 0 1 -3.51227 4.5268 -1.27557
51 1 1 0 1 -2.98641 3.84456 6.4001
52 1 1 0 1 1.09431 5.14575 14.2056
53 1 1 0 1 -2.46235 1.45362 5.08883
54 1 1 0 1 -5.85298 -0.63696 12.2698
55 1 1 0 1 -6.58787 3.2877 11.9912
56 1 1 0 1 -0.379004 0.667183 7.96051
57 1 1 0 1 -1.99981 9.86171 14.2676
58 1 1 0 1 -5.40289 11.0085 13.2321
59 1 1 0 1 -7.97433 1.48342 12.2926
60 1 1 0 1 -1.47859 3.436 19.0379
61 1 1 0 1 -7.63712 5.75893 11.3528
62 1 1 0 1 -0.637772 0.0372887 21.0177
63 1 1 0 1 -2.79294 9.18988 6.50273
64 1 1 0 1 -2.39907 -2.08524 14.1021
65 1 1 0 1 -5.14022 5.32238 19.3409
66 1 1 0 1 -8.96626 2.35057 22.6862
67 1 1 0 1 -3.91601 1.48921 -4.43567
68 1 1 0 1 -3.27828 3.82419 -6.32547
69 1 1 0 1 -4.60312 6.6584 -1.17883
70 1 1 0 1 -2.51848 7.72476 4.55537
71 1 1 0 1 2.79507 2.47822 4.78643
72 1 1 0 1 -11.8901 5.78985 4.22684
73 1 1 0 1 4.50304 -1.47906 10.2897
74 1 1 0 1 -4.87087 3.49478 10.3118
75 1 1 0 1 -0.986858 0.134191 11.662
76 1 1 0 1 -9.41512 -0.585142 9.80443
77 1 1 0 1 -3.79788 -2.74286 7.89629
78 1 1 0 1 -1.72227 6.74714 9.89915
79 1 1 0 1 -5.32379 2.9227 12.7568
80 1 1 0 1 2.28201 2.47054 10.604
81 1 1 0 1 -0.481117 7.1314 14.9691
82 1 1 0 1 -3.01527 -1.4514 12.5059
83 1 1 0 1 -2.98933 -1.44014 17.0103
84 1 1 0 1 0.259831 4.71955 18.0228
85 1 1 0 1 -5.25299 2.84597 24.873
86 1 1 0 1 -4.55594 2.5139 20.3528
87 1 1 0 1 -3.49969 -1.70735 22.4623
88 1 1 0 1 -4.12716 9.46889 21.1342
89 1 1 0 1 -3.64005 9.80459 1.68784
90 1 1 0 1 -0.387271 8.62265 6.24236
91 1 1 0 1 -4.46296 1.38887 8.09181
92 1 1 0 1 -4.971 6.53921 8.38618
93 1 1 0 1 -2.37229 9.04046 9.53081
94 1 1 0 1 -5.83964 -2.81594 3.77602
95 1 1 0 1 -5.7497 7.28421 9.34787
96 1 1 0 1 -2.2786 4.6212 10.0548
97 1 1 0 1 -1.35483 10.3286 11.1409
98 1 1 0 1 -0.313924 5.96411 7.54621
99 1 1 0 1 -3.3577 5.07911 11.3437
100 1 1 0 1 0.502506 1.43695 5.89711
101 1 1 0 1 -4.41395 6.97917 12.3684
102 1 1 0 1 -3.21895 6.02697 13.5521
103 1 1 0 1 -4.89822 11.0522 10.2857
104 1 1 0 1 -4.27154 13.7003 12.245
105 1 1 0 1 -3.94734 7.25639 4.5673
106 1 1 0 1 -2.67375 1.28736 21.4713
107 1 1 0 1 -6.92828 11.2705 17.1068
108 1 1 0 1 -2.34816 8.48609 15.5534
109 1 1 0 1 -8.05532 7.26805 22.9603
110 1 1 0 1 -6.62016 8.22766 22.4968
111 1 1 0 1 -5.67706 2.96805 1.94051
112 1 1 0 1 -2.4723 4.10676 -3.56551
113 1 1 0 1 -0.183374 14.0215 10.1232
114 1 1 0 1 -3.25242 6.32537 3.61013
115 1 1 0 1 -2.96822 13.1403 4.58081
116 1 1 0 1 -0.993566 13.6171 4.25192
117 1 1 0 1 -3.68397 8.94464 7.17816
118 1 1 0 1 -2.56664 2.91259 8.57188
119 1 1 0 1 -3.68962 -0.269211 9.49788
120 1 1 0 1 -4.47754 2.16325 10.2646
121 1 1 0 1 1.12317 2.88875 4.63834
122 1 1 0 1 -4.42509 7.15586 10.574
123 1 1 0 1 -3.66622 6.57397 12.8564
124 1 1 0 1 -8.04939 8.9236 15.4188
125 1 1 0 1 -7.23972 10.5211 7.21665
126 1 1 0 1 -5.68956 7.47888 14.9756
127 1 1 0 1 -2.15468 10.2175 18.6525
128 1 1 0 1 -8.04853 13.6874 14.0838
129 1 1 0 1 -4.5558 6.04235 19.8432
130 1 1 0 1 -6.28773 6.92843 19.6553
131 1 1 0 1 -5.53878 2.29904 11.3469
132 1 1 0 1 -7.12217 5.19069 23.0452
133 1 1 0 1 -1.022 8.00897 0.400355
134 1 1 0 1 -7.69236 7.51658 7.15729
135 1 1 0 1 -6.09366 -0.472021 2.12501
136 1 1 0 1 -3.75139 12.2837 4.61509
137 1 1 0 1 -6.69163 6.97504 6.63574
138 1 1 0 1 -7.1341 10.5909 9.34277
139 1 1 0 1 -0.367407 7.56808 3.29283
140 1 1 0 1 -8.96975 9.69328 3.04087
141 1 1 0 1 4.58875 8.58495 0.477109
142 1 1 0 1 -1.88144 2.29509 13.1714
143 1 1 0 1 -2.99138 3.40376 13.6564
144 1 1 0 1 0.690533 1.35574 9.60851
145 1 1 0 1 -3.5938 7.60654 18.1369
146 1 1 0 1 -4.11371 13.5268 20.2521
147 1 1 0 1 -1.85701 14.6369 14.6105
148 1 1 0 1 -5.54691 15.1763 12.7215
149 1 1 0 1 -4.04579 7.41268 23.2843
150 1 1 0 1 -8.83255 7.18353 12.1866
151 1 1 0 1 -6.87773 3.95432 22.7139
152 1 1 0 1 -4.61732 6.07546 18.6846
153 1 1 0 1 -3.93032 5.69628 20.5662
154 1 1 0 1 -2.87356 5.1773 28.4633
155 1 1 0 1 -1.68952 4.35217 -4.61136
156 1 1 0 1 -2.61809 3.76855 2.02491
157 1 1 0 1 -2.22251 7.68577 0.980126
158 1 1 0 1 -2.08384 8.49709 2.56079
159 1 1 0 1 -5.69569 8.99738 0.832027
160 1 1 0 1 -7.91267 2.03348 7.74032
161 1 1 0 1 0.0770758 9.29422 2.78356
162 1 1 0 1 -1.67306 4.91423 6.70215
163 1 1 0 1 1.48155 5.23995 8.04986
164 1 1 0 1 -3.72408 3.51091 12.8831
165 1 1 0 1 -2.36079 3.22318 7.03524
166 1 1 0 1 -0.977279 8.30113 16.9934
167 1 1 0 1 -1.10165 11.7857 13.9218
168 1 1 0 1 -3.252 10.1904 18.5488
169 1 1 0 1 -5.8478 12.7232 17.0525
170 1 1 0 1 0.624294 6.27058 20.9824
171 1 1 0 1 -1.07747 11.4493 18.5206
172 1 1 0 1 -1.05541 10.0334 21.1412
173 1 1 0 1 -0.618353 7.09742 13.8271
174 1 1 0 1 0.835133 3.68366 25.9032
175 1 1 0 1 -8.39736 9.9516 21.7457
176 1 1 0 1 0.789891 5.03818 24.5377
177 1 1 0 1 -7.5959 3.64188 -0.0323744
178 1 1 0 1 -1.69317 17.4607 7.18863
179 1 1 0 1 -4.74995 15.5675 -3.08706
180 1 1 0 1 0.277638 12.9635 4.61937
181 1 1 0 1 -3.95982 12.1952 3.34726
182 1 1 0 1 -4.40662 14.5189 5.95947
183 1 1 0 1 -6.16521 12.0557 4.31472
184 1 1 0 1 -3.6394 7.11409 7.99877
185 1 1 0 1 -8.86157 1.11786 8.30549
186 1 1 0 1 -11.0174 13.3209 6.75694
187 1 1 0 1 -7.83888 14.2188 11.5104
188 1 1 0 1 -3.04323 3.03362 11.1128
189 1 1 0 1 0.426366 11.192 12.4723
190 1 1 0 1 -6.2157 6.16622 15.0909
191 1 1 0 1 -0.796133 11.1147 20.9382
192 1 1 0 1 -2.69095 10.2313 19.4786
193 1 1 0 1 -1.23253 5.60562 17.5247
194 1 1 0 1 2.39576 11.7903 23.6179
195 1 1 0 1 -3.15935 8.6973 16.3087
196 1 1 0 1 -0.255861 5.41603 18.8424
197 1 1 0 1 -4.42377 8.18836 17.9655
198 1 1 0 1 3.75468 9.79011 26.3086
199 1 1 0 1 3.75583 9.63003 0.700176
200 1 1 0 1 1.68841 8.18693 5.09593
201 1 1 0 1 -5.14605 9.83784 -0.038763
202 1 1 0 1 -1.25753 7.93301 8.34409
203 1 1 0 1 -5.241 8.6755 3.76631
204 1 1 0 1 -4.4108 10.7789 7.97779
205 1 1 0 1 -1.53574 5.31832 4.92567
206 1 1 0 1 -1.92735 9.71551 4.8557
207 1 1 0 1 -6.41479 5.36174 2.2378
208 1 1 0 1 -3.53806 4.97141 13.5682
209 1 1 0 1 -3.88728 1.96727 8.93787
210 1 1 0 1 -6.35777 8.38864 11.3568
211 1 1 0 1 1.51796 7.3645 8.68674
212 1 1 0 1 -4.40983 7.75344 8.57891
213 1 1 0 1 2.9036 12.3583 20.744
214 1 1 0 1 -10.1619 15.3459 19.1344
215 1 1 0 1 -5.80068 9.36284 20.3335
216 1 1 0 1 -5.15416 7.57359 20.5605
217 1 1 0 1 -5.98666 15.2904 24.2144
218 1 1 0 1 -0.882502 9.97388 22.3401
219 1 1 0 1 1.62556 12.9218 25.1091
220 1 1 0 1 -0.446796 12.422 22.004
221 1 1 0 1 5.65841 9.93333 -3.52855
222 1 1 0 1 -5.76556 11.4775 2.29103
223 1 1 0 1 -11.4345 9.20471 1.69291
224 1 1 0 1 -2.12326 9.6742 0.796247
225 1 1 0 1 -7.67616 14.5823 5.56009
226 1 1 0 1 -10.6197 14.0138 8.49786
227 1 1 0 1 -11.0016 15.0698 5.99463
228 1 1 0 1 -7.21237 17.0409 7.57749
229 1 1 0 1 0.988537 10.4171 9.28806
230 1 1 0 1 -3.85189 13.604 5.30657
231 1 1 0 1 -5.38558 10.1706 13.8214
232 1 1 0 1 -2.5396 1.18502 13.415
233 1 1 0 1 -4.57345 11.9004 12.9744
234 1 1 0 1 -9.33743 10.829 11.9809
235 1 1 0 1 -2.47357 9.70934 17.3858
236 1 1 0 1 -9.25769 15.3208 16.5911
237 1 1 0 1 -6.9623 14.0026 20.8982
238 1 1 0 1 -5.50856 12.2226 13.6792
239 1 1 0 1 -6.36876 9.95563 16.9692
240 1 1 0 1 -3.80948 11.52 16.2239
241 1 1 0 1 -3.52115 8.46086 20.1848
242 1 1 0 1 -1.55389 6.88454 22.8297
243 1 1 0 1 -1.924 13.2135 3.77301
244 1 1 0 1 -4.30335 15.3044 -2.01518
245 1 1 0 1 -6.18768 14.9903 3.2272
246 1 1 0 1 -0.84029 12.9357 5.47115
247 1 1 0 1 -7.60384 11.8886 4.80951
248 1 1 0 1 -2.27305 3.28506 6.00277
249 1 1 0 1 -8.2454 12.6418 7.53784
250 1 1 0 1 -4.97305 8.09829 9.62718
251 1 1 0 1 -4.37438 9.71895 7.48235
252 1 1 0 1 -0.895829 5.82476 6.77789
253 1 1 0 1 -0.396912 2.14457 14.5543
254 1 1 0 1 0.317649 14.1362 12.5368
255 1 1 0 1 -7.34146 7.26797 8.73009
256 1 1 0 1 -9.65195 16.931 12.3886
257 1 1 0 1 -0.681187 16.3939 17.0122
258 1 1 0 1 -1.76567 13.5997 15.342
259 1 1 0 1 -4.24065 14.6511 18.9599
260 1 1 0 1 -0.916834 14.0348 18.2022
261 1 1 0 1 -3.09184 8.48496 17.3648
262 1 1 0 1 -2.87312 14.6875 22.8749
263 1 1 0 1 0.536562 12.2521 16.3079
264 1 1 0 1 1.96134 18.3248 23.1721
265 1 1 0 1 -1.05065 14.1937 -1.10893
266 1 1 0 1 5.77002 14.5083 3.11072
267 1 1 0 1 -1.87439 16.5039 6.68746
268 1 1 0 1 -4.06253 8.76355 2.25731
269 1 1 0 1 1.60305 11.0139 11.0498
270 1 1 0 1 -3.75657 15.0245 -0.118316
271 1 1 0 1 -3.62419 3.96195 8.86951
272 1 1 0 1 -9.16628 13.6534 13.4534
273 1 1 0 1 -5.53288 13.1294 5.92238
274 1 1 0 1 -6.90091 10.0781 11.8194
275 1 1 0 1 -12.2805 6.41232 11.0227
276 1 1 0 1 -1.51881 12.7199 14.243
277 1 1 0 1 -0.969901 10.8125 10.219
278 1 1 0 1 0.351688 13.5856 11.4113
279 1 1 0 1 -5.05858 15.4768 14.0895
280 1 1 0 1 -7.06902 12.8617 5.40524
281 1 1 0 1 -1.64693 12.1216 25.5185
282 1 1 0 1 -7.29365 12.9842 8.57927
283 1 1 0 1 0.220913 13.9628 13.6146
284 1 1 0 1 -3.00902 13.76 17.2267
285 1 1 0 1 -3.45207 9.64755 16.4277
286 1 1 0 1 -3.25537 12.6288 18.1495
287 1 1 0 1 -4.32006 20.6691 3.53736
288 1 1 0 1 -1.3914 16.0197 3.50289
289 1 1 0 1 -6.12238 3.58023 6.77206
290 1 1 0 1 -4.4193 9.42027 4.31069
291 1 1 0 1 -9.3941 8.60252 12.9585
292 1 1 0 1 -8.36203 16.4502 8.13098
293 1 1 0 1 -0.770829 9.43472 6.81625
294 1 1 0 1 -1.49484 13.2764 9.9206
295 1 1 0 1 -2.30214 8.72184 13.4374
296 1 1 0 1 -3.00868 13.1175 10.1476
297 1 1 0 1 -5.89035 11.8942 7.08107
298 1 1 0 1 -8.12314 6.76256 15.6758
299 1 1 0 1 0.814497 17.4442 15.3524
300 1 1 0 1 1.40923 18.6433 20.2135
301 1 1 0 1 -5.95842 13.6378 13.4324
302 1 1 0 1 -5.65438 15.0968 15.7817
303 1 1 0 1 -8.2359 16.1146 11.5413
304 1 1 0 1 1.24538 10.0395 8.37109
305 1 1 0 1 2.34374 9.78544 14.7861
306 1 1 0 1 0.0278388 16.4122 21.9336
307 1 1 0 1 -1.35726 14.0415 13.7524
308 1 1 0 1 -0.706203 21.573 31.8424
309 1 1 0 1 -0.19308 14.3553 3.75884
310 1 1 0 1 -0.897066 13.8603 2.99648
311 1 1 0 1 -5.39694 12.6939 -2.88944
312 1 1 0 1 -9.75193 7.37908 3.36876
313 1 1 0 1 -8.74333 14.9087 2.3121
314 1 1 0 1 -0.0579367 11.6609 5.43949
315 1 1 0 1 0.461106 7.82854 8.66108
316 1 1 0 1 -6.64729 13.6404 1.83166
317 1 1 0 1 -5.56529 14.2079 7.6487
318 1 1 0 1 -2.83959 13.862 8.23351
319 1 1 0 1 -3.32239 13.4584 7.33495
320 1 1 0 1 1.07568 20.9673 10.0529
321 1 1 0 1 -3.03841 16.6787 14.0958
322 1 1 0 1 0.63735 10.3884 14.7576
323 1 1 0 1 -4.22847 14.3012 10.5803
324 1 1 0 1 -3.34292 9.03548 8.35536
325 1 1 0 1 0.223049 14.4768 8.89703
326 1 1 0 1 -7.35144 15.1972 18.3265
327 1 1 0 1 -2.73023 13.6274 18.2234
328 1 1 0 1 -4.31915 17.0816 18.1576
329 1 1 0 1 2.29476 13.8494 19.8906
330 1 1 0 1 -0.243613 14.8877 19.8394
331 1 1 0 1 -1.6905 16.3104 5.53495
332 1 1 0 1 -2.09728 19.9067 4.61964
333 1 1 0 1 -3.33484 14.4478 5.56967
334 1 1 0 1 -6.91941 16.893 1.27361
335 1 1 0 1 -2.9999 15.7096 8.1339
336 1 1 0 1 -8.02229 11.0684 3.78762
337 1 1 0 1 -3.96664 9.7246 9.31384
338 1 1 0 1 -1.52962 13.5043 8.06336
339 1 1 0 1 -9.08121 11.9249 3.59511
340 1 1 0 1 3.21808 13.8175 7.94194
341 1 1 0 1 -6.97231 5.59761 6.31865
342 1 1 0 1 -6.76002 13.628 14.4946
343 1 1 0 1 -5.74622 12.2917 3.09123
344 1 1 0 1 -6.4631 13.1042 12.653
345 1 1 0 1 -6.79073 16.819 14.7463
346 1 1 0 1 7.95469 17.1133 17.6014
347 1 1 0 1 -0.174988 18.6131 19.016
348 1 1 0 1 -2.34521 10.9222 17.3543
349 1 1 0 1 -1.13793 17.5242 15.1682
350 1 1 0 1 -0.486267 15.9213 19.5667
351 1 1 0 1 -7.33586 19.9249 15.5708
352 1 1 0 1 0.0431702 18.2492 27.583
353 1 1 0 1 -6.12337 18.1227 -0.264297
354 1 1 0 1 3.99648 18.4937 1.66514
355 1 1 0 1 -7.35389 12.0669 7.38584
356 1 1 0 1 -3.97499 10.6938 6.87988
357 1 1 0 1 -0.4443 16.0174 2.9344
358 1 1 0 1 -2.56928 14.5706 4.82109
359 1 1 0 1 -7.73261 16.7417 4.26458
360 1 1 0 1 -2.98891 14.6577 7.35436
361 1 1 0 1 -6.97592 20.7569 11.8596
362 1 1 0 1 -1.27226 11.9697 10.0929
363 1 1 0 1 1.63317 13.5342 8.43304
364 1 1 0 1 4.11344 15.6987 11.5585
365 1 1 0 1 -1.48815 8.03645 3.35858
366 1 1 0 1 -7.39942 13.8342 15.593
367 1 1 0 1 -1.34198 11.4018 9.29843
368 1 1 0 1 -3.87471 19.0158 17.8065
369 1 1 0 1 -5.18544 9.8834 12.8766
370 1 1 0 1 -2.62414 8.25565 8.49006
371 1 1 0 1 -1.45052 18.6412 24.8688
372 1 1 0 1 -3.11483 13.1806 19.3556
373 1 1 0 1 -8.83175 13.229 22.0649
374 1 1 0 1 -2.44054 11.901 24.8774
375 1 1 0 1 -5.48495 7.24487 5.43364
376 1 1 0 1 -4.75386 12.6706 -0.298768
377 1 1 0 1 -8.89514 16.6005 1.50103
378 1 1 0 1 -6.84359 16.6537 3.45644
379 1 1 0 1 -3.16917 17.8751 -3.21452
380 1 1 0 1 -7.34548 14.6621 2.62932
381 1 1 0 1 -4.95554 15.4761 6.18118
382 1 1 0 1 -10.9043 18.5922 13.0462
383 1 1 0 1 -1.97036 17.7193 11.44
384 1 1 0 1 1.90753 10.8156 8.95062
385 1 1 0 1 -3.28414 17.4384 11.2842
386 1 1 0 1 -6.11031 15.202 7.82336
387 1 1 0 1 -7.29569 11.6781 14.935
388 1 1 0 1 -3.19297 12.5593 20.3299
389 1 1 0 1 -5.52787 12.5872 15.5458
390 1 1 0 1 -1.06002 17.3417 17.9149
391 1 1 0 1 -5.0967 17.7204 19.4113
392 1 1 0 1 -7.91268 14.6023 10.5024
393 1 1 0 1 -2.79681 8.78852 14.6734
394 1 1 0 1 -4.46957 19.7246 20.6316
395 1 1 0 1 -10.3404 13.1443 12.7752
396 1 1 0 1 -2.24286 13.8367 24.7257
397 1 1 0 1 -0.412904 20.9187 1.88389
398 1 1 0 1 -3.60486 25.0087 0.851565
399 1 1 0 1 -4.73403 14.3074 -1.76636
400 1 1 0 1 -1.29313 9.92463 3.92319
401 1 1 0 1 2.80622 12.0089 7.56995
402 1 1 0 1 -3.65303 18.6082 10.715
403 1 1 0 1 0.649563 16.3608 10.5172
404 1 1 0 1 -7.25614 24.9307 4.66992
405 1 1 0 1 -11.9868 13.9087 6.47257
406 1 1 0 1 -4.50756 14.6857 9.32493
407 1 1 0 1 -3.60362 15.1419 6.35757
408 1 1 0 1 -9.98681 18.933 8.4877
409 1 1 0 1 -5.66168 13.1643 14.6178
410 1 1 0 1 -6.55306 9.84941 10.7477
411 1 1 0 1 -0.239801 17.6954 11.1492
412 1 1 0 1 -11.5482 16.1667 8.78113
413 1 1 0 1 -8.73484 16.8996 20.3657
414 1 1 0 1 -5.39496 11.7537 19.6873
415 1 1 0 1 -2.90876 15.0896 20.9554
416 1 1 0 1 -4.69134 13.3342 23.404
417 1 1 0 1 3.37527 19.3818 21.9242
418 1 1 0 1 1.00306 14.552 24.0294
419 1 1 0 1 -4.85991 16.4842 7.29694
420 1 1 0 1 -3.12136 27.3844 12.7183
421 1 1 0 1 -6.17891 16.8869 6.84283
422 1 1 0 1 -3.35903 11.3673 3.9792
423 1 1 0 1 -4.37287 22.0814 8.62486
424 1 1 0 1 -5.23808 18.0545 8.99455
425 1 1 0 1 -3.6708 17.709 5.05457
426 1 1 0 1 -3.03315 22.8816 0.387275
427 1 1 0 1 0.674317 19.9251 9.97287
428 1 1 0 1 1.70682 23.2005 2.96159
429 1 1 0 1 -4.47511 23.7907 6.14281
430 1 1 0 1 2.96743 18.767 11.6304
431 1 1 0 1 -10.1957 17.0271 13.2024
432 1 1 0 1 -2.54927 25.4797 15.0309
433 1 1 0 1 -4.33965 18.2323 15.9073
434 1 1 0 1 -3.61956 11.6862 12.4744
435 1 1 0 1 -5.51935 9.95798 19.2921
436 1 1 0 1 -8.73878 17.9788 16.765
437 1 1 0 1 -2.45057 16.5546 15.003
438 1 1 0 1 -5.03626 18.0447 16.6562
439 1 1 0 1 -1.51325 20.0284 19.4579
440 1 1 0 1 -3.34946 16.6987 18.7939
441 1 1 0 1 -3.01784 16.6719 -4.21167
442 1 1 0 1 -4.75175 21.5949 6.51457
443 1 1 0 1 -1.43903 18.1423 -0.162127
444 1 1 0 1 -3.97049 25.5579 -0.388497
445 1 1 0 1 -5.82085 15.9782 3.71771
446 1 1 0 1 -1.33968 5.86424 9.07259
447 1 1 0 1 -2.94965 11.188 6.16275
448 1 1 0 1 -8.14183 15.197 12.0747
449 1 1 0 1 -7.6812 17.9377 10.8583
450 1 1 0 1 -1.8186 15.2422 21.2468
451 1 1 0 1 -7.33886 15.0865 9.4943
452 1 1 0 1 -6.35992 16.6282 16.152
453 1 1 0 1 -6.20933 18.1457 19.049
454 1 1 0 1 1.45672 24.6184 15.7877
455 1 1 0 1 -5.37806 7.81894 7.83981
456 1 1 0 1 -4.39661 14.6672 11.7489
457 1 1 0 1 -10.7317 24.6665 13.0128
458 1 1 0 1 -9.17838 17.4803 17.6209
459 1 1 0 1 -7.24491 16.5684 18.7885
460 1 1 0 1 -1.02465 12.9592 18.9752
461 1 1 0 1 0.053916 22.0853 12.7101
462 1 1 0 1 2.65135 22.7342 21.1576
463 1 1 0 1 -0.240658 22.3635 -6.51564
464 1 1 0 1 -1.34865 21.2821 6.26832
465 1 1 0 1 1.34232 23.6892 1.93656
466 1 1 0 1 0.970256 22.7797 5.02841
467 1 1 0 1 -6.51169 17.0977 11.9276
468 1 1 0 1 -2.10189 21.9687 4.52082
469 1 1 0 1 -3.63389 14.6348 8.32699
470 1 1 0 1 0.365944 21.6186 4.18882
471 1 1 0 1 -3.63496 11.9093 6.9808
472 1 1 0 1 2.01585 28.3234 11.5013
473 1 1 0 1 -4.81263 17.1035 12.8602
474 1 1 0 1 0.404263 15.1455 12.0987
475 1 1 0 1 -2.58298 15.2704 13.8635
476 1 1 0 1 0.310262 21.3074 21.7249
477 1 1 0 1 -1.11492 21.079 15.71
478 1 1 0 1 -4.09829 20.5774 15.202
479 1 1 0 1 -2.53283 26.6774 15.4598
480 1 1 0 1 2.22672 20.6004 15.3765
481 1 1 0 1 -1.85963 20.223 17.2479
482 1 1 0 1 -5.24141 28.5606 15.0955
483 1 1 0 1 1.13043 21.6457 29.7296
484 1 1 0 1 0.131831 21.9291 24.6832
485 1 1 0 1 -2.84933 -4.05069 4.09481
486 1 1 0 1 -1.7356 5.73548 -5.58913
487 1 1 0 1 -3.00079 4.86372 1.16243
488 1 1 0 1 -3.95219 -0.873045 2.59734
489 1 1 0 1 -2.26495 4.79551 4.1547
490 1 1 0 1 -5.62213 -2.14598 2.23181
491 1 1 0 1 -4.67161 4.59821 8.7383
492 1 1 0 1 -2.00055 -7.7291 8.8783
493 1 1 0 1 -2.79108 -1.06064 10.3388
494 1 1 0 1 -3.73131 -0.91188 4.39076
495 1 1 0 1 -3.80179 1.77612 15.678
496 1 1 0 1 -1.31246 7.04614 12.8093
497 1 1 0 1 -2.75707 -4.03496 10.6464
498 1 1 0 1 -0.88151 -0.686864 16.7397
499 1 1 0 1 -2.18608 -0.708245 11.5799
500 1 1 0 1 -2.83263 -3.17983 19.1268
501 1 1 0 1 -0.545168 -3.60482 11.8268
502 1 1 0 1 0.820314 -7.25783 20.2991
503 1 1 0 1 -2.76363 6.80863 14.2906
504 1 1 0 1 -2.12378 -1.20553 13.2099
505 1 1 0 1 -5.54716 -1.65773 14.1149
506 1 1 0 1 -1.82411 3.8158 20.221
507 1 1 0 1 -2.21702 3.97769 -0.862135
508 1 1 0 1 -3.0461 2.54429 2.13164
509 1 1 0 1 -4.71648 5.01176 4.41615
510 1 1 0 1 -4.97682 -0.986986 2.16242
511 1 1 0 1 2.46449 4.36828 0.87293
512 1 1 0 1 -0.963899 7.07483 6.67606
513 1 1 0 1 -1.52598 -3.21107 6.52219
514 1 1 0 1 -3.3381 1.84888 3.10664
515 1 1 0 1 3.91918 5.60993 4.31222
516 1 1 0 1 -4.71197 0.798798 11.1569
517 1 1 0 1 -6.09237 -1.46549 7.31848
518 1 1 0 1 -0.891729 1.80547 7.14931
519 1 1 0 1 -0.243966 0.352009 14.031
520 1 1 0 1 -0.646189 -2.06961 12.0298
521 1 1 0 1 0.1589 2.62125 9.67363
522 1 1 0 1 -6.33529 5.05881 12.6124
523 1 1 0 1 1.31241 -1.64039 15.0139
524 1 1 0 1 0.0378645 3.1413 14.7779
525 1 1 0 1 -6.38414 4.62954 25.1933
526 1 1 0 1 2.41028 -2.99643 25.2025
527 1 1 0 1 0.00439699 5.62111 20.1716
528 1 1 0 1 1.35216 4.23792 25.1353
529 1 1 0 1 7.81946 8.78872 5.30005
530 1 1 0 1 0.324124 -0.876016 -6.43369
531 1 1 0 1 -2.37294 8.54182 -3.57357
532 1 1 0 1 0.910038 -2.58312 1.07742
533 1 1 0 1 -5.22066 4.12892 0.627589
534 1 1 0 1 -0.732271 0.319465 3.41191
535 1 1 0 1 0.680168 3.46632 1.92834
536 1 1 0 1 -2.01153 5.79843 2.92049
537 1 1 0 1 -3.18775 1.99156 8.25684
538 1 1 0 1 -5.78801 -1.67581 12.1847
539 1 1 0 1 -1.28513 5.37362 14.0642
540 1 1 0 1 -0.310877 5.1881 9.24532
541 1 1 0 1 -5.30227 7.84801 13.5098
542 1 1 0 1 -4.55199 5.88704 12.5298
543 1 1 0 1 -10.4311 7.35463 13.3232
544 1 1 0 1 1.56206 5.02981 15.2014
545 1 1 0 1 -1.61663 3.51718 12.1916
546 1 1 0 1 -0.734569 1.29877 15.0944
547 1 1 0 1 -1.65116 1.44768 19.3806
548 1 1 0 1 -1.8296 8.52553 26.5818
549 1 1 0 1 -1.59256 7.97824 20.9734
550 1 1 0 1 -2.96067 6.8477 23.4978
551 1 1 0 1 -1.66425 8.59263 1.46527
552 1 1 0 1 -4.91511 8.46819 0.200296
553 1 1 0 1 -2.48106 10.3464 3.81129
554 1 1 0 1 -0.239735 2.65525 -2.09061
555 1 1 0 1 0.102836 7.29761 -0.463054
556 1 1 0 1 -1.40301 2.95567 5.3079
557 1 1 0 1 0.535461 3.58291 5.37242
558 1 1 0 1 3.46388 5.16286 7.01747
559 1 1 0 1 -1.82889 0.923089 9.06473
560 1 1 0 1 -4.9927 0.787087 4.21992
561 1 1 0 1 2.88006 -0.218167 11.5448
562 1 1 0 1 1.65219 4.65158 13.2434
563 1 1 0 1 -2.72902 2.10132 13.9872
564 1 1 0 1 -4.41915 -2.53754 10.5151
565 1 1 0 1 5.22999 5.57986 15.1247
566 1 1 0 1 3.07625 5.56845 14.4901
567 1 1 0 1 -1.36521 7.18572 19.9124
568 1 1 0 1 2.80236 7.16316 15.956
569 1 1 0 1 0.766207 4.54262 19.8329
570 1 1 0 1 -6.96116 4.99092 22.0191
571 1 1 0 1 4.68152 5.08676 18.971
572 1 1 0 1 -0.928074 3.38655 21.2329
573 1 1 0 1 -3.04112 8.05697 -0.882981
574 1 1 0 1 -1.33071 5.2547 7.81807
575 1 1 0 1 -2.76433 2.44167 -1.07244
576 1 1 0 1 -5.07216 5.16561 0.985089
577 1 1 0 1 -3.41447 3.84371 5.41916
578 1 1 0 1 -2.71589 11.1234 12.2602
579 1 1 0 1 -4.23172 2.3099 7.63187
580 1 1 0 1 -1.83474 0.758034 10.6843
581 1 1 0 1 -3.4894 9.49157 11.555
582 1 1 0 1 -0.393439 1.82072 8.10157
583 1 1 0 1 -3.97604 6.56424 8.83844
584 1 1 0 1 -3.07368 10.9899 15.6939
585 1 1 0 1 -8.6525 2.95655 15.7242
586 1 1 0 1 1.02701 14.3079 17.3568
587 1 1 0 1 -5.34121 13.4162 12.1445
588 1 1 0 1 -6.02542 4.10834 17.271
589 1 1 0 1 -5.85903 5.20732 22.4014
590 1 1 0 1 -3.22399 4.68292 17.8598
591 1 1 0 1 -2.91284 4.26062 14.391
592 1 1 0 1 -2.82751 2.69197 22.246
593 1 1 0 1 -0.616965 6.29837 16.5289
594 1 1 0 1 -4.69097 0.0481269 20.393
595 1 1 0 1 -0.951393 4.46673 -3.74701
596 1 1 0 1 -1.81423 6.17521 6.41836
597 1 1 0 1 -6.49787 3.77685 7.80083
598 1 1 0 1 3.64274 4.14884 -1.01751
599 1 1 0 1 3.03727 6.87549 0.799893
600 1 1 0 1 1.68787 9.3374 2.62085
601 1 1 0 1 -4.17202 6.72662 6.81272
602 1 1 0 1 3.22851 -0.52055 2.3107
603 1 1 0 1 3.31738 1.77344 11.9494
604 1 1 0 1 4.93907 4.30256 11.0797
605 1 1 0 1 2.45128 6.22969 10.013
606 1 1 0 1 -5.97467 -3.18526 14.115
607 1 1 0 1 -0.777954 7.85418 10.3586
608 1 1 0 1 -0.451196 -0.695809 12.0979
609 1 1 0 1 5.15065 9.87762 12.9967
610 1 1 0 1 1.9063 6.03647 13.5725
611 1 1 0 1 -1.29624 4.33349 9.84571
612 1 1 0 1 2.16217 2.76941 18.6177
613 1 1 0 1 -1.19485 2.76543 16.559
614 1 1 0 1 -5.72878 5.44491 26.2448
615 1 1 0 1 -9.96596 6.45112 22.8942
616 1 1 0 1 -3.25752 6.95345 19.0626
617 1 1 0 1 -0.721124 2.79537 1.83209
618 1 1 0 1 -6.80435 8.92716 -0.552044
619 1 1 0 1 -2.06624 15.9792 2.52947
620 1 1 0 1 2.73327 8.67824 4.25356
621 1 1 0 1 -4.63381 5.13397 3.11807
622 1 1 0 1 -7.61276 6.35827 7.46018
623 1 1 0 1 -7.44587 5.84249 2.9934
624 1 1 0 1 -1.8499 2.10038 4.39334
625 1 1 0 1 -5.46383 6.52412 7.42298
626 1 1 0 1 -0.148356 8.0869 15.0337
627 1 1 0 1 -5.589 -0.660466 15.7552
628 1 1 0 1 2.98734 1.65571 7.66123
629 1 1 0 1 1.56238 9.94433 12.891
630 1 1 0 1 1.2884 13.7468 13.2094
631 1 1 0 1 -0.568583 10.1388 14.865
632 1 1 0 1 2.28128 6.05912 17.4561
633 1 1 0 1 -12.4919 8.6562 18.9541
634 1 1 0 1 -3.93357 7.27686 19.9968
635 1 1 0 1 -0.689105 5.64972 15.689
636 1 1 0 1 -3.63048 2.84852 16.8563
637 1 1 0 1 -4.47548 3.74053 20.602
638 1 1 0 1 -4.37216 4.85876 21.601
639 1 1 0 1 -5.36158 3.93498 5.98034
640 1 1 0 1 1.29506 8.57978 3.72511
641 1 1 0 1 3.23382 6.21662 2.16442
642 1 1 0 1 0.930483 8.62372 2.51228
643 1 1 0 1 -2.61923 11.9989 4.18256
644 1 1 0 1 -3.34543 5.79187 2.18665
645 1 1 0 1 -3.07468 6.7231 4.64094
646 1 1 0 1 3.39616 3.91412 6.47719
647 1 1 0 1 -2.35331 8.40009 -0.0707711
648 1 1 0 1 -5.00388 9.64434 10.8916
649 1 1 0 1 -2.26612 10.8729 7.6944
650 1 1 0 1 2.87878 10.5212 10.3165
651 1 1 0 1 2.13336 9.12999 8.30725
652 1 1 0 1 -2.05215 16.5249 16.8024
653 1 1 0 1 -5.87991 17.6802 14.1267
654 1 1 0 1 2.03368 10.0283 21.1064
655 1 1 0 1 -2.25881 7.88705 12.6006
656 1 1 0 1 -4.2598 5.34103 16.3625
657 1 1 0 1 2.5028 7.80193 16.8733
658 1 1 0 1 5.61244 9.37685 23.533
659 1 1 0 1 -3.74805 6.81728 14.1293
660 1 1 0 1 0.973233 8.74519 18.6904
661 1 1 0 1 -2.01101 9.88141 -0.303814
662 1 1 0 1 1.14595 10.5477 -0.756372
663 1 1 0 1 -6.86794 4.76164 4.23794
664 1 1 0 1 -4.00593 10.7241 5.56506
665 1 1 0 1 -8.15511 4.66868 5.64169
666 1 1 0 1 2.45539 9.49876 13.2734
667 1 1 0 1 -5.81315 6.32194 2.70814
668 1 1 0 1 -8.30221 4.56438 2.69377
669 1 1 0 1 -1.00729 7.24731 4.29495
670 1 1 0 1 -2.70737 8.11935 6.38617
671 1 1 0 1 0.128416 2.04021 6.66587
672 1 1 0 1 -1.60546 16.9794 14.4245
673 1 1 0 1 -3.84012 14.235 15.5201
674 1 1 0 1 -0.32369 10.1931 17.0568
675 1 1 0 1 -1.20348 10.9839 17.0992
676 1 1 0 1 -7.10483 7.14266 16.0473
677 1 1 0 1 -3.40521 11.0625 21.0296
678 1 1 0 1 2.63441 4.148 19.474
679 1 1 0 1 -6.3274 7.90358 19.2612
680 1 1 0 1 -3.06929 7.33508 13.2956
681 1 1 0 1 -1.28904 10.4995 17.971
682 1 1 0 1 1.7309 8.3493 23.824
683 1 1 0 1 -1.47881 10.8157 4.50764
684 1 1 0 1 0.550559 5.10031 -1.12912
685 1 1 0 1 -2.29595 17.3833 13.6087
686 1 1 0 1 0.684158 6.27748 6.42558
687 1 1 0 1 0.945706 18.3002 4.80122
688 1 1 0 1 -1.68177 13.3554 4.9114
689 1 1 0 1 -3.56828 3.11887 6.15368
690 1 1 0 1 0.201796 7.66047 12.5417
691 1 1 0 1 -0.0643487 4.50108 6.84911
692 1 1 0 1 1.68102 6.84542 10.5317
693 1 1 0 1 -1.10857 8.28032 18.0898
694 1 1 0 1 -3.92965 15.3301 17.3066
695 1 1 0 1 -5.1553 9.23736 17.857
696 1 1 0 1 -1.47798 4.56905 19.2892
697 1 1 0 1 -3.55055 11.7093 14.814
698 1 1 0 1 -8.4323 11.181 21.93
699 1 1 0 1 0.29012 8.69717 21.2315
700 1 1 0 1 -1.49383 15.4274 13.271
701 1 1 0 1 0.146631 9.96033 19.3279
702 1 1 0 1 -4.56343 5.57885 17.3743
703 1 1 0 1 0.0250458 12.1846 19.011
704 1 1 0 1 -0.830656 18.1967 19.7714
705 1 1 0 1 0.881756 12.2203 2.29362
706 1 1 0 1 -2.3757 7.13444 0.129755
707 1 1 0 1 -2.25944 22.204 -0.273497
708 1 1 0 1 0.379885 7.32444 -1.4417
709 1 1 0 1 -5.01849 10.1806 3.68041
710 1 1 0 1 -3.50489 13.4766 6.28691
711 1 1 0 1 -4.82524 8.80631 7.2033
712 1 1 0 1 -4.53514 10.9631 12.7253
713 1 1 0 1 -5.18734 11.0564 8.61972
714 1 1 0 1 0.442601 9.5464 5.82104
715 1 1 0 1 -2.88989 14.2001 13.8277
716 1 1 0 1 -3.26561 12.337 16.3311
717 1 1 0 1 -4.82428 13.8232 14.4347
718 1 1 0 1 -1.72499 11.5429 16.0884
719 1 1 0 1 -4.31378 9.4467 18.3754
720 1 1 0 1 1.27948 10.5255 18.8078
721 1 1 0 1 -7.63709 10.8924 13.3279
722 1 1 0 1 3.46091 14.9724 25.8053
723 1 1 0 1 -0.88567 10.2247 16.1554
724 1 1 0 1 -2.23507 15.5588 22.3127
725 1 1 0 1 0.50708 15.1383 25.7055
726 1 1 0 1 -1.90165 15.4706 26.9476
727 1 1 0 1 0.788996 14.0765 -0.438356
728 1 1 0 1 -4.05876 10.777 -2.46681
729 1 1 0 1 -7.25549 7.25402 -3.00298
730 1 1 0 1 -0.258901 16.999 3.20802
731 1 1 0 1 1.76094 14.1283 5.94281
732 1 1 0 1 4.65635 10.6581 3.62695
733 1 1 0 1 -3.38406 9.37047 4.87119
734 1 1 0 1 1.06932 4.34013 7.37973
735 1 1 0 1 0.156646 17.9474 4.26539
736 1 1 0 1 -6.14729 13.3294 2.79524
737 1 1 0 1 0.326866 10.2747 13.6762
738 1 1 0 1 9.52083 14.324 9.47719
739 1 1 0 1 -4.53806 8.99441 13.3113
740 1 1 0 1 -2.87768 11.3966 22.0196
741 1 1 0 1 -2.69529 7.60854 17.7504
742 1 1 0 1 1.87192 8.55384 20.395
743 1 1 0 1 -0.564395 11.4378 21.9158
744 1 1 0 1 2.66279 13.2793 27.6586
745 1 1 0 1 -1.30287 8.96381 22.4319
746 1 1 0 1 -1.54462 9.03288 19.0497
747 1 1 0 1 -0.674661 12.7956 25.6584
748 1 1 0 1 0.44121 12.992 25.5294
749 1 1 0 1 -1.56106 13.4082 5.9281
750 1 1 0 1 -0.165231 7.8929 5.13794
751 1 1 0 1 -7.6708 13.4245 4.74587
752 1 1 0 1 0.39773 18.7848 1.87514
753 1 1 0 1 0.986125 12.3015 4.9357
754 1 1 0 1 1.55654 10.2323 3.28999
755 1 1 0 1 3.58519 17.667 3.74717
756 1 1 0 1 -7.03623 18.5378 3.5222
757 1 1 0 1 -3.15672 13.4788 16.0303
758 1 1 0 1 -3.49988 15.9706 13.3462
759 1 1 0 1 -6.30842 8.91412 9.85537
760 1 1 0 1 0.609126 7.21855 14.4375
761 1 1 0 1 -2.48163 17.5858 15.0323
762 1 1 0 1 -2.44199 14.3522 12.135
763 1 1 0 1 -3.55656 15.4556 11.232
764 1 1 0 1 -6.00331 16.0806 13.7637
765 1 1 0 1 -0.977808 15.368 20.6566
766 1 1 0 1 -0.460727 12.7388 18.0519
767 1 1 0 1 -2.45813 14.7143 19.9854
768 1 1 0 1 -3.6669 11.539 23.0766
769 1 1 0 1 3.86481 9.95274 21.55
770 1 1 0 1 -3.27101 14.4853 25.1605
771 1 1 0 1 -2.62761 15.3026 3.9903
772 1 1 0 1 -1.42927 11.7953 11.1465
773 1 1 0 1 -2.93719 12.6641 3.47325
774 1 1 0 1 -1.4581 15.2447 10.4009
775 1 1 0 1 -7.83379 13.7265 1.1145
776 1 1 0 1 1.19941 11.3643 6.14781
777 1 1 0 1 -3.84669 16.7504 7.0303
778 1 1 0 1 -2.53251 12.8989 7.80346
779 1 1 0 1 -1.26114 15.956 14.7791
780 1 1 0 1 -6.02315 16.8238 9.79406
781 1 1 0 1 3.35402 11.5121 19.239
782 1 1 0 1 -3.22046 15.9737 16.961
783 1 1 0 1 -4.49386 18.2146 13.0864
784 1 1 0 1 0.434389 18.2242 21.5801
785 1 1 0 1 -3.88582 19.8627 16.0667
786 1 1 0 1 -2.00213 12.1714 20.5164
787 1 1 0 1 4.45959 14.6871 19.2395
788 1 1 0 1 -8.96284 18.4527 14.6912
789 1 1 0 1 -5.44298 17.3543 18.5855
790 1 1 0 1 -0.0208398 11.5986 25.1186
791 1 1 0 1 1.68819 12.5141 19.8544
792 1 1 0 1 -0.705097 9.3952 23.3438
793 1 1 0 1 -8.31827 12.9166 1.52194
794 1 1 0 1 2.37399 17.7058 2.14705
795 1 1 0 1 -0.0639593 17.0718 -0.953129
796 1 1 0 1 -2.24609 18.0792 6.18874
797 1 1 0 1 -3.92959 17.7002 3.12338
798 1 1 0 1 -2.98299 15.5035 2.08041
799 1 1 0 1 -3.97628 16.5742 8.10768
800 1 1 0 1 2.452 8.10033 3.49435
801 1 1 0 1 5.77899 13.5532 10.8503
802 1 1 0 1 -5.30827 17.7558 11.9707
803 1 1 0 1 -3.34291 17.9525 15.9725
804 1 1 0 1 -1.17907 14.3417 12.6129
805 1 1 0 1 -5.4802 17.3243 15.7026
806 1 1 0 1 1.42228 8.48659 8.86073
807 1 1 0 1 -3.18452 18.184 14.9009
808 1 1 0 1 -0.317488 22.7746 10.8264
809 1 1 0 1 -6.14616 17.4909 16.8697