ITEM: TIMESTEP
18000
ITEM: NUMBER OF ATOMS
6752
ITEM: BOX BOUNDS pp pp pp
0.0000000000000000e+00 2.2000000000000000e+01
0.0000000000000000e+00 2.2000000000000000e+01
0.0000000000000000e+00 2.2000000000000000e+01
ITEM: ATOMS id mol type q mass xu yu zu
1 1 1 0 1 -4.50157 -7.82622 2.61677
2 1 1 0 1 -2.34724 3.1212 0.0714342
3 1 1 0 1 -3.47107 0.331194 4.76727
4 1 1 0 1 -8.1867 -1.81121 1.79639
5 1 1 0 1 2.4108 4.3987 2.22494
6 1 1 0 1 -9.22298 -0.898087 6.88157
7 1 1 0 1 4.69211 7.03833 4.38305
8 1 1 0 1 2.35053 -4.04731 12.0286
9 1 1 0 1 -1.09723 2.92277 10.8588
10 1 1 0 1 -9.47257 -0.858968 10.6563
11 1 1 0 1 -0.0774736 3.77318 7.67211
12 1 1 0 1 -7.17969 -4.89395 17.2767
13 1 1 0 1 1.0584 4.13588 13.5901
14 1 1 0 1 -2.06468 12.9668 14.0563
15 1 1 0 1 -7.09505 0.157074 9.87171
16 1 1 0 1 -6.44691 -3.76987 14.2255
17 1 1 0 1 -0.345217 -3.0411 15.6194
18 1 1 0 1 -3.91815 -2.35064 22.601
19 1 1 0 1 -2.23626 4.99449 17.2308
20 1 1 0 1 -0.170393 1.27556 17.806
21 1 1 0 1 -6.96622 6.35114 15.3425
22 1 1 0 1 -5.92924 10.1582 20.9785
23 1 1 0 1 -7.25658 -0.500547 2.12686
24 1 1 0 1 -1.82427 3.57833 -1.22752
25 1 1 0 1 -1.44004 0.0502981 -7.35965
26 1 1 0 1 0.172769 -2.03075 5.26136
27 1 1 0 1 -8.19876 -1.41925 10.2764
28 1 1 0 1 -3.64209 4.47541 -0.493175
29 1 1 0 1 -3.15608 -1.89013 14.3249
30 1 1 0 1 -4.37274 -1.89972 15.8502
31 1 1 0 1 -3.26056 8.37531 12.6893
32 1 1 0 1 -4.49541 -4.38291 4.66775
33 1 1 0 1 -9.19882 1.49358 10.231
34 1 1 0 1 -5.42817 5.81881 14.9384
35 1 1 0 1 -2.27372 2.22874 12.3763
36 1 1 0 1 1.163 1.07302 4.5703
37 1 1 0 1 -6.74865 -1.04783 15.3504
38 1 1 0 1 1.82592 -0.60894 21.747
39 1 1 0 1 0.117754 4.18809 10.362
40 1 1 0 1 -0.822889 6.07114 17.8592
41 1 1 0 1 -6.46332 -0.68125 13.526
42 1 1 0 1 -8.39555 1.20996 24.9031
43 1 1 0 1 0.296517 11.5915 23.0562
44 1 1 0 1 -3.30331 8.62989 16.5788
45 1 1 0 1 -11.2289 5.76971 6.31659
46 1 1 0 1 -2.55914 2.58391 9.68205
47 1 1 0 1 -1.9316 2.5436 -3.17335
48 1 1 0 1 -8.50644 7.38241 5.40886
49 1 1 0 1 -1.0908 3.16438 -2.20049
50 1 1 0 1 -2.68068 4.77586 -1.15542
51 1 1 0 1 -1.17832 4.01482 5.09032
52 1 1 0 1 1.28459 1.38304 13.05
53 1 1 0 1 -4.04965 -0.449663 4.60337
54 1 1 0 1 -4.69856 -3.25237 14.9143
55 1 1 0 1 -4.50519 2.76831 12.2401
56 1 1 0 1 -0.00675338 1.5286 10.5162
57 1 1 0 1 0.0291861 8.61399 12.946
58 1 1 0 1 -7.8911 14.7119 10.6206
59 1 1 0 1 -5.18809 2.68915 10.2943
60 1 1 0 1 0.0306157 3.31849 19.8948
61 1 1 0 1 -8.03797 8.50934 11.7122
62 1 1 0 1 2.22494 -0.00941301 23.5382
63 1 1 0 1 -1.00292 7.15416 4.72107
64 1 1 0 1 -1.01746 -4.45571 14.4474
65 1 1 0 1 -6.56993 3.63435 18.7328
66 1 1 0 1 -7.05228 3.47569 22.2505
67 1 1 0 1 -3.20347 -0.691469 -2.31619
68 1 1 0 1 -7.83826 5.17457 -5.09523
69 1 1 0 1 -4.83857 6.53504 -0.492504
70 1 1 0 1 -1.6398 10.0002 6.47082
71 1 1 0 1 1.48766 0.979626 5.69183
72 1 1 0 1 -12.6758 3.32253 1.04694
73 1 1 0 1 1.82654 2.2006 12.4397
74 1 1 0 1 -4.83139 3.78671 13.6662
75 1 1 0 1 -0.990168 0.568848 13.2531
76 1 1 0 1 -8.11369 0.151429 9.4497
77 1 1 0 1 -4.95922 -2.52278 5.22034
78 1 1 0 1 1.25504 7.07339 11.4562
79 1 1 0 1 -3.79516 4.41678 13.9249
80 1 1 0 1 2.43799 -1.43129 13.3088
81 1 1 0 1 -2.93045 9.03624 19.1951
82 1 1 0 1 -4.62511 -2.57134 11.6976
83 1 1 0 1 -3.53509 -2.28223 17.5198
84 1 1 0 1 2.75529 6.72976 16.8658
85 1 1 0 1 -4.23361 2.12014 24.6391
86 1 1 0 1 -3.95256 0.952551 22.0494
87 1 1 0 1 -1.54507 -0.53526 21.7572
88 1 1 0 1 -4.73732 9.07067 22.0207
89 1 1 0 1 -2.87773 8.34151 0.60999
90 1 1 0 1 0.0721671 12.1821 5.95192
91 1 1 0 1 -4.34093 1.17321 7.29451
92 1 1 0 1 -6.74725 6.96693 4.39612
93 1 1 0 1 -2.99007 5.75377 8.08143
94 1 1 0 1 -3.09786 -3.39748 3.59118
95 1 1 0 1 -5.9881 8.566 7.2138
96 1 1 0 1 -1.57119 6.16444 9.28928
97 1 1 0 1 -0.437855 11.4983 13.3134
98 1 1 0 1 -0.436256 6.09677 4.44205
99 1 1 0 1 -2.77191 7.64002 9.44635
100 1 1 0 1 0.448271 1.1059 5.44754
101 1 1 0 1 -6.01699 4.82985 7.7311
102 1 1 0 1 -4.16756 5.45503 9.63995
103 1 1 0 1 -3.92858 8.04576 9.71843
104 1 1 0 1 -4.51036 14.425 13.7524
105 1 1 0 1 -2.0699 7.18968 4.57622
106 1 1 0 1 0.774608 3.35114 21.6638
107 1 1 0 1 -6.69302 8.78376 14.4421
108 1 1 0 1 -0.8501 9.29105 15.7498
109 1 1 0 1 -6.71498 4.76113 19.4154
110 1 1 0 1 -6.06115 7.75014 23.252
111 1 1 0 1 -4.11839 4.79399 1.13693
112 1 1 0 1 -3.90469 4.88303 -1.67088
113 1 1 0 1 0.582822 12.6709 11.7837
114 1 1 0 1 -0.665026 9.44635 5.47101
115 1 1 0 1 -5.03262 10.5602 3.92193
116 1 1 0 1 -1.23808 12.3815 3.98208
117 1 1 0 1 -2.27683 6.34835 5.14277
118 1 1 0 1 -2.01962 2.01607 8.84556
119 1 1 0 1 -4.38502 2.21048 9.94578
120 1 1 0 1 -3.05753 1.53693 10.6467
121 1 1 0 1 1.13361 2.58359 4.70282
122 1 1 0 1 -2.38602 4.34125 9.76993
123 1 1 0 1 -5.0631 5.86331 12.8698
124 1 1 0 1 -7.378 10.0366 13.9121
125 1 1 0 1 -8.2274 8.06858 6.11938
126 1 1 0 1 -7.73407 6.44605 19.7982
127 1 1 0 1 -1.86957 9.42403 19.6782
128 1 1 0 1 -8.52352 13.2044 12.3172
129 1 1 0 1 -2.05863 7.23834 22.4363
130 1 1 0 1 -8.62932 5.81426 16.5698
131 1 1 0 1 -7.07031 1.75414 11.5657
132 1 1 0 1 -2.68942 5.66413 25.0196
133 1 1 0 1 -0.223491 8.24628 5.31035
134 1 1 0 1 -8.63171 4.963 6.84868
135 1 1 0 1 -8.2099 0.148362 0.863159
136 1 1 0 1 -4.73764 10.3017 0.587848
137 1 1 0 1 -9.23663 6.12254 8.32103
138 1 1 0 1 -9.50932 9.25827 10.8501
139 1 1 0 1 2.90186 6.9383 4.7238
140 1 1 0 1 -10.2931 6.84839 3.89022
141 1 1 0 1 3.27376 5.28471 1.32398
142 1 1 0 1 -3.55968 3.45724 13.1795
143 1 1 0 1 -4.57951 4.88626 14.9369
144 1 1 0 1 2.74013 3.43758 9.03887
145 1 1 0 1 -6.97963 7.27754 19.4717
146 1 1 0 1 -5.2352 14.0198 22.4196
147 1 1 0 1 -3.12397 16.1218 14.5252
148 1 1 0 1 -7.97803 15.3547 13.5514
149 1 1 0 1 -5.28573 7.19884 18.3967
150 1 1 0 1 -6.71455 9.64691 10.4437
151 1 1 0 1 -6.00098 2.50826 21.2961
152 1 1 0 1 -5.02449 5.0756 17.104
153 1 1 0 1 -1.5778 7.61098 19.1973
154 1 1 0 1 -1.43078 3.37205 28.0059
155 1 1 0 1 0.281306 2.54471 -5.75445
156 1 1 0 1 -1.10594 5.40499 -2.26736
157 1 1 0 1 -2.06684 7.91033 1.31267
158 1 1 0 1 -2.29489 9.89192 3.92954
159 1 1 0 1 -6.94976 10.5998 0.199109
160 1 1 0 1 -3.876 2.19827 7.0373
161 1 1 0 1 -2.41471 12.4685 3.55486
162 1 1 0 1 -1.54587 4.84804 10.5828
163 1 1 0 1 0.46243 5.44538 7.56326
164 1 1 0 1 -5.01297 5.45543 10.6254
165 1 1 0 1 -1.91461 2.22693 10.3993
166 1 1 0 1 -1.75805 9.49679 18.6583
167 1 1 0 1 -3.26652 14.2992 17.9107
168 1 1 0 1 -5.18277 7.8726 19.4596
169 1 1 0 1 -5.51621 9.88748 18.9676
170 1 1 0 1 2.06905 6.23154 19.4381
171 1 1 0 1 -1.74763 10.2518 22.7267
172 1 1 0 1 -0.226325 8.93086 20.7934
173 1 1 0 1 -1.45514 10.1013 15.1504
174 1 1 0 1 2.35246 6.71396 25.8358
175 1 1 0 1 -7.75641 9.53169 18.787
176 1 1 0 1 2.1037 3.23756 26.4747
177 1 1 0 1 -8.38639 3.06376 1.25528
178 1 1 0 1 -0.422305 14.972 7.29473
179 1 1 0 1 -6.04784 14.6469 -1.56501
180 1 1 0 1 2.07263 13.6566 3.53569
181 1 1 0 1 -5.29929 15.0609 3.87869
182 1 1 0 1 -2.81811 13.6661 8.06134
183 1 1 0 1 -6.72151 11.6521 3.79305
184 1 1 0 1 -4.29612 5.10175 8.54225
185 1 1 0 1 -9.52827 0.682718 8.10393
186 1 1 0 1 -12.0354 15.3003 7.19607
187 1 1 0 1 -9.39613 15.0041 11.1091
188 1 1 0 1 -2.02417 1.25052 12.0345
189 1 1 0 1 1.75254 10.9711 14.1541
190 1 1 0 1 -7.87944 6.33833 12.6412
191 1 1 0 1 -3.24907 8.96648 20.3085
192 1 1 0 1 -2.1921 9.11111 17.6153
193 1 1 0 1 -0.385413 4.4388 20.3311
194 1 1 0 1 7.10273 12.4974 22.4617
195 1 1 0 1 -4.38042 8.65597 14.261
196 1 1 0 1 -0.316463 7.81394 18.5596
197 1 1 0 1 -2.90919 8.52033 15.6092
198 1 1 0 1 8.29917 9.98407 25.2105
199 1 1 0 1 2.65057 11.0458 2.36271
200 1 1 0 1 4.60519 3.47976 5.23053
201 1 1 0 1 -6.27254 11.1315 -0.611095
202 1 1 0 1 -2.13416 4.89492 7.12892
203 1 1 0 1 -6.01979 12.1463 6.02284
204 1 1 0 1 -3.66841 10.7875 12.0669
205 1 1 0 1 -2.0779 7.484 3.49213
206 1 1 0 1 0.341832 10.2962 5.00255
207 1 1 0 1 -7.08845 7.3979 1.81506
208 1 1 0 1 -2.73147 5.45056 13.5099
209 1 1 0 1 -4.34945 2.65376 4.93731
210 1 1 0 1 -6.34241 8.18198 10.0399
211 1 1 0 1 0.813689 7.88039 9.08189
212 1 1 0 1 -9.37047 4.72682 10.5006
213 1 1 0 1 1.7667 8.21264 23.3824
214 1 1 0 1 -13.5857 17.9694 18.8565
215 1 1 0 1 -4.85904 11.1835 18.5379
216 1 1 0 1 -4.08963 6.56167 18.1567
217 1 1 0 1 -7.1532 14.4472 23.2532
218 1 1 0 1 -2.2515 9.7725 21.8252
219 1 1 0 1 3.82417 11.1883 22.7027
220 1 1 0 1 3.33137 13.0177 22.2775
221 1 1 0 1 7.38697 10.6916 -4.0428
222 1 1 0 1 -7.17821 11.774 -0.510314
223 1 1 0 1 -9.68224 11.0319 1.16006
224 1 1 0 1 -5.54007 8.89527 -0.871847
225 1 1 0 1 -7.55167 16.1851 5.99513
226 1 1 0 1 -10.6553 13.4205 9.11188
227 1 1 0 1 -9.8482 12.4474 4.15791
228 1 1 0 1 -9.27043 15.7744 4.32958
229 1 1 0 1 1.27254 9.73871 8.9206
230 1 1 0 1 -4.9563 14.2665 7.35779
231 1 1 0 1 -6.53287 12.3669 14.0661
232 1 1 0 1 -0.306641 1.89591 13.3928
233 1 1 0 1 -4.29201 11.2597 12.9415
234 1 1 0 1 -10.4169 9.32978 11.3749
235 1 1 0 1 -4.53346 10.6414 17.4259
236 1 1 0 1 -9.49467 13.7137 15.4072
237 1 1 0 1 -9.63506 13.4518 19.4094
238 1 1 0 1 -6.78826 13.3311 14.6623
239 1 1 0 1 -7.00509 11.8566 19.0069
240 1 1 0 1 -6.70145 13.8462 13.3626
241 1 1 0 1 -4.41351 9.4033 18.6863
242 1 1 0 1 -0.318865 2.63487 24.4616
243 1 1 0 1 -0.855414 15.424 1.88128
244 1 1 0 1 -3.88144 13.4566 1.13309
245 1 1 0 1 -4.41462 16.2057 0.902376
246 1 1 0 1 0.196183 10.907 5.83368
247 1 1 0 1 -6.13218 10.9969 5.72563
248 1 1 0 1 -2.17768 2.38395 5.59333
249 1 1 0 1 -9.17225 13.6298 7.58914
250 1 1 0 1 -3.88716 5.63887 5.85508
251 1 1 0 1 -2.21002 7.41395 5.95885
252 1 1 0 1 -1.56695 4.2796 6.40641
253 1 1 0 1 -2.54179 -0.193156 15.7979
254 1 1 0 1 1.54387 14.0848 15.6977
255 1 1 0 1 -7.17136 3.07754 5.61032
256 1 1 0 1 -10.2197 16.5918 10.7876
257 1 1 0 1 1.73197 17.0308 17.8576
258 1 1 0 1 -0.656787 16.1115 16.2024
259 1 1 0 1 -4.15122 13.6357 20.304
260 1 1 0 1 -2.70279 15.178 17.6132
261 1 1 0 1 -3.84811 8.01367 18.2135
262 1 1 0 1 -2.65942 11.3052 22.6537
263 1 1 0 1 2.14539 15.3893 18.8287
264 1 1 0 1 -0.177584 15.2136 21.1938
265 1 1 0 1 -4.5772 12.1524 -0.562474
266 1 1 0 1 5.46995 15.2051 3.2691
267 1 1 0 1 -3.4239 18.4059 8.23775
268 1 1 0 1 -4.47885 5.75591 -1.05495
269 1 1 0 1 0.560784 10.2576 10.8917
270 1 1 0 1 -0.728144 16.0363 -1.21072
271 1 1 0 1 -5.90008 4.24635 8.56608
272 1 1 0 1 -9.22629 10.7964 15.0926
273 1 1 0 1 -7.33064 11.4866 7.60001
274 1 1 0 1 -9.20729 9.50622 8.77493
275 1 1 0 1 -8.77994 7.8852 11.9577
276 1 1 0 1 -3.21337 11.9575 12.5102
277 1 1 0 1 -2.99067 10.0691 14.0216
278 1 1 0 1 -0.974352 13.2095 14.569
279 1 1 0 1 -6.46123 16.0802 11.2684
280 1 1 0 1 -5.61636 12.4777 6.99674
281 1 1 0 1 -0.998686 10.4664 27.7953
282 1 1 0 1 -7.35641 12.9816 10.7549
283 1 1 0 1 -0.665045 14.5527 14.0587
284 1 1 0 1 -3.7017 12.6263 16.2977
285 1 1 0 1 -6.01061 8.71266 17.6451
286 1 1 0 1 -2.2212 10.2554 17.723
287 1 1 0 1 -6.06644 19.3657 3.34435
288 1 1 0 1 -1.31815 17.3254 -1.04154
289 1 1 0 1 -8.21714 5.24146 4.87996
290 1 1 0 1 -2.6177 11.4063 3.47689
291 1 1 0 1 -9.4741 5.28537 9.18062
292 1 1 0 1 -7.24676 14.1688 7.90254
293 1 1 0 1 1.38797 8.6819 5.59397
294 1 1 0 1 -1.02957 13.5822 8.98787
295 1 1 0 1 -4.65119 8.95392 11.2508
296 1 1 0 1 -3.64286 13.3287 12.5346
297 1 1 0 1 -6.66773 10.7312 7.34723
298 1 1 0 1 -8.84577 4.11518 17.2446
299 1 1 0 1 1.02347 19.4645 12.8721
300 1 1 0 1 -0.745381 18.7652 19.6343
301 1 1 0 1 -5.08943 15.517 15.662
302 1 1 0 1 -5.36624 13.5952 16.3299
303 1 1 0 1 -6.67946 16.0377 10.1688
304 1 1 0 1 -0.021265 10.4355 6.92112
305 1 1 0 1 3.22404 12.0674 18.6983
306 1 1 0 1 -0.372103 14.1296 22.3871
307 1 1 0 1 2.68176 13.9263 16.0985
308 1 1 0 1 0.681306 25.5082 31.8131
309 1 1 0 1 -0.101224 12.5469 3.73556
310 1 1 0 1 2.22972 14.8552 3.74576
311 1 1 0 1 -7.56632 13.632 -0.435989
312 1 1 0 1 -9.21113 6.107 2.91816
313 1 1 0 1 -6.89537 13.2663 1.57908
314 1 1 0 1 0.576334 11.8996 3.73646
315 1 1 0 1 0.71931 6.74504 9.29163
316 1 1 0 1 -9.12708 13.4327 2.60137
317 1 1 0 1 -5.51677 13.493 10.1807
318 1 1 0 1 -3.56137 15.0267 11.7955
319 1 1 0 1 -2.69258 10.6022 9.47738
320 1 1 0 1 2.291 20.2474 10.3711
321 1 1 0 1 -7.48905 17.5145 14.1735
322 1 1 0 1 -1.45697 12.2045 15.7646
323 1 1 0 1 -4.24551 15.2803 13.1659
324 1 1 0 1 -1.98661 11.9872 6.74865
325 1 1 0 1 0.192052 11.3865 6.81531
326 1 1 0 1 -9.50972 15.4007 18.2991
327 1 1 0 1 -5.15931 13.2655 20.2608
328 1 1 0 1 -2.93614 17.806 20.9014
329 1 1 0 1 3.93583 10.4052 24.9311
330 1 1 0 1 2.5286 13.8204 24.4372
331 1 1 0 1 -3.51785 15.5226 8.07753
332 1 1 0 1 -2.75449 19.5632 5.48003
333 1 1 0 1 -3.8731 10.5589 6.21699
334 1 1 0 1 -3.53861 16.0257 3.20936
335 1 1 0 1 -1.91296 14.3435 8.62843
336 1 1 0 1 -6.99612 10.4822 6.34171
337 1 1 0 1 -1.70364 9.37393 7.43582
338 1 1 0 1 -1.52031 11.8465 9.81329
339 1 1 0 1 -9.00259 10.7767 6.47984
340 1 1 0 1 1.02804 10.4716 7.75683
341 1 1 0 1 -5.84316 6.99888 8.06423
342 1 1 0 1 -6.89948 14.7931 11.4806
343 1 1 0 1 -4.16126 13.0429 7.24763
344 1 1 0 1 -7.67438 12.4314 13.6899
345 1 1 0 1 -6.38305 18.8659 13.2281
346 1 1 0 1 4.22113 17.5964 16.9673
347 1 1 0 1 1.11537 18.3298 20.4839
348 1 1 0 1 -0.655565 11.8003 21.1868
349 1 1 0 1 -0.979843 18.0819 15.3605
350 1 1 0 1 0.374253 17.918 20.9962
351 1 1 0 1 -7.61298 20.978 15.8522
352 1 1 0 1 -1.17468 17.6717 27.9855
353 1 1 0 1 -9.13107 19.9391 -2.21257
354 1 1 0 1 1.36522 18.4801 0.540163
355 1 1 0 1 -7.42075 7.87301 5.36103
356 1 1 0 1 -4.85592 11.8173 7.08712
357 1 1 0 1 -0.121292 14.9899 4.3589
358 1 1 0 1 -1.16315 13.4466 6.55141
359 1 1 0 1 -8.41376 14.6407 5.36574
360 1 1 0 1 -0.347288 13.9056 7.80744
361 1 1 0 1 -3.79172 19.2748 12.79
362 1 1 0 1 1.03862 11.5089 9.31957
363 1 1 0 1 3.3675 13.6616 8.70064
364 1 1 0 1 6.81453 14.4234 9.96371
365 1 1 0 1 -2.75121 8.04209 8.22121
366 1 1 0 1 -7.34602 18.4977 13.7637
367 1 1 0 1 -1.15848 10.8334 10.4858
368 1 1 0 1 -4.44527 19.4146 18.0647
369 1 1 0 1 -5.19287 10.5458 11.2723
370 1 1 0 1 -2.52405 6.7059 9.87185
371 1 1 0 1 -4.15127 18.6009 24.693
372 1 1 0 1 -3.02625 13.0252 18.0686
373 1 1 0 1 -8.11004 12.3583 20.2561
374 1 1 0 1 -1.19085 13.2253 29.6469
375 1 1 0 1 -7.38394 5.7621 4.65743
376 1 1 0 1 -4.17738 14.5099 -0.981011
377 1 1 0 1 -8.05351 12.2811 -0.111679
378 1 1 0 1 -10.094 15.2577 3.46054
379 1 1 0 1 -3.03617 17.3146 -3.43417
380 1 1 0 1 -5.38076 15.3459 2.77523
381 1 1 0 1 -4.27924 15.1353 5.86845
382 1 1 0 1 -13.3979 16.2782 15.1544
383 1 1 0 1 -2.65389 17.6541 12.2071
384 1 1 0 1 0.349577 11.9282 11.1888
385 1 1 0 1 -4.08567 16.0624 10.1554
386 1 1 0 1 -3.74737 13.2449 8.40793
387 1 1 0 1 -7.28102 11.6126 18.0035
388 1 1 0 1 -3.81948 15.2717 18.0404
389 1 1 0 1 -5.24614 16.0929 14.6399
390 1 1 0 1 -2.98295 15.2796 18.6879
391 1 1 0 1 -4.86979 18.6204 20.5241
392 1 1 0 1 -7.71582 16.1807 8.42281
393 1 1 0 1 -5.03584 10.5255 13.777
394 1 1 0 1 -3.91641 19.7665 20.8978
395 1 1 0 1 -12.2992 14.5977 14.6543
396 1 1 0 1 -2.50452 15.224 25.0363
397 1 1 0 1 -1.67305 18.5538 1.3565
398 1 1 0 1 -3.17259 26.1936 1.28657
399 1 1 0 1 -2.33695 16.26 -1.96345
400 1 1 0 1 -3.71638 9.08064 5.81126
401 1 1 0 1 1.82094 14.1098 9.58572
402 1 1 0 1 -4.20813 13.823 10.0105
403 1 1 0 1 1.76429 16.1624 9.84425
404 1 1 0 1 -4.41756 26.236 4.31134
405 1 1 0 1 -12.4371 15.5025 8.34931
406 1 1 0 1 -5.47232 15.9711 8.66618
407 1 1 0 1 -3.54397 15.8129 6.94121
408 1 1 0 1 -6.34767 18.5545 7.27081
409 1 1 0 1 -7.63686 12.67 15.6486
410 1 1 0 1 -5.02695 6.21081 7.38949
411 1 1 0 1 0.914849 14.8345 10.9622
412 1 1 0 1 -10.408 13.9541 8.25061
413 1 1 0 1 -8.55269 15.9523 19.8458
414 1 1 0 1 -6.08427 12.2692 21.0132
415 1 1 0 1 -3.36258 15.5108 24.0209
416 1 1 0 1 -3.71439 13.8185 25.4304
417 1 1 0 1 2.49552 18.1993 24.7407
418 1 1 0 1 2.24962 12.8041 27.061
419 1 1 0 1 -6.43976 18.1494 6.25602
420 1 1 0 1 -3.58281 28.3727 13.6662
421 1 1 0 1 -7.88807 18.2749 4.19242
422 1 1 0 1 -4.09689 8.43746 3.12114
423 1 1 0 1 -3.69903 24.4266 8.57046
424 1 1 0 1 -4.63181 17.2317 10.3176
425 1 1 0 1 -4.306 15.002 4.45588
426 1 1 0 1 -2.66563 22.8781 0.480559
427 1 1 0 1 -3.55244 22.3793 7.85576
428 1 1 0 1 3.09885 19.2311 2.91642
429 1 1 0 1 -6.53337 22.8254 6.02757
430 1 1 0 1 1.38031 15.6997 9.01923
431 1 1 0 1 -9.04959 16.555 14.7566
432 1 1 0 1 -0.852816 26.677 13.715
433 1 1 0 1 -4.18511 17.1583 12.8031
434 1 1 0 1 -4.16842 8.56825 13.3343
435 1 1 0 1 -4.02119 9.52144 20.9208
436 1 1 0 1 -8.3648 15.907 16.511
437 1 1 0 1 -3.99372 19.1657 15.5068
438 1 1 0 1 -5.17321 17.8202 17.6631
439 1 1 0 1 -3.20087 22.4121 21.4285
440 1 1 0 1 -4.34997 12.4146 23.6135
441 1 1 0 1 -4.4658 18.4395 -3.5119
442 1 1 0 1 -4.92262 23.915 7.95923
443 1 1 0 1 -3.66473 18.3494 0.92372
444 1 1 0 1 -3.30134 25.2152 -1.50327
445 1 1 0 1 -8.73108 14.8293 4.34181
446 1 1 0 1 0.0495468 5.74556 10.2106
447 1 1 0 1 -2.35403 11.9372 5.34369
448 1 1 0 1 -9.15696 16.1102 9.35047
449 1 1 0 1 -4.54907 22.9053 11.6008
450 1 1 0 1 -1.2738 13.7142 22.9122
451 1 1 0 1 -6.60108 17.8313 9.68837
452 1 1 0 1 -5.26354 17.2686 18.7448
453 1 1 0 1 -5.79953 19.1583 18.7197
454 1 1 0 1 2.5177 24.7761 15.9286
455 1 1 0 1 -4.18109 6.9811 6.41229
456 1 1 0 1 -3.64886 14.1666 13.0295
457 1 1 0 1 -8.18765 22.6966 10.3298
458 1 1 0 1 -11.0196 15.219 16.7602
459 1 1 0 1 -6.2731 14.9177 17.2164
460 1 1 0 1 -0.450565 12.2704 19.3388
461 1 1 0 1 1.83962 22.4096 10.5019
462 1 1 0 1 5.13572 23.7147 20.2117
463 1 1 0 1 0.598351 22.3766 -6.7573
464 1 1 0 1 -0.8849 21.7263 11.4954
465 1 1 0 1 5.27816 24.7999 0.230576
466 1 1 0 1 3.11885 25.6839 2.44223
467 1 1 0 1 -5.96156 19.1172 10.385
468 1 1 0 1 -3.42766 19.0571 4.63722
469 1 1 0 1 -2.79591 13.9992 12.1738
470 1 1 0 1 -1.30877 21.3149 7.83015
471 1 1 0 1 -3.93208 9.74069 6.98085
472 1 1 0 1 2.5801 28.2585 12.8568
473 1 1 0 1 -4.70025 18.9548 9.9541
474 1 1 0 1 1.18823 17.8755 11.2686
475 1 1 0 1 -0.245916 15.7354 14.7405
476 1 1 0 1 1.73883 23.9714 18.4816
477 1 1 0 1 -1.09647 19.1269 14.9467
478 1 1 0 1 1.33135 24.2649 14.3828
479 1 1 0 1 -4.85829 28.8696 17.1998
480 1 1 0 1 3.17387 20.6249 19.3576
481 1 1 0 1 -2.78433 20.6047 17.8245
482 1 1 0 1 -5.42026 30.9522 16.6432
483 1 1 0 1 -2.55652 19.1204 30.4435
484 1 1 0 1 -2.77184 22.6334 25.2645
485 1 1 0 1 -1.76092 -7.29341 4.22113
486 1 1 0 1 -0.705707 5.98823 -6.63297
487 1 1 0 1 -0.95421 6.364 -1.67494
488 1 1 0 1 -1.47329 -0.0953547 2.20562
489 1 1 0 1 -1.32745 2.49147 -0.186127
490 1 1 0 1 -7.29845 -1.70185 2.6078
491 1 1 0 1 -4.71438 3.62394 9.57357
492 1 1 0 1 -1.38406 -8.47524 11.3534
493 1 1 0 1 -1.39131 -3.95089 11.0886
494 1 1 0 1 -3.63145 -1.25655 4.11315
495 1 1 0 1 -6.90893 5.40595 15.938
496 1 1 0 1 -1.69548 8.74698 15.2526
497 1 1 0 1 -4.04438 -5.8371 13.7128
498 1 1 0 1 -1.38221 1.56001 18.6144
499 1 1 0 1 -0.647259 2.36979 10.1241
500 1 1 0 1 -5.96947 -3.46524 17.4127
501 1 1 0 1 -1.01219 -3.87213 8.3043
502 1 1 0 1 2.10339 -7.57438 19.1561
503 1 1 0 1 -3.40144 9.53295 16.0398
504 1 1 0 1 -1.98854 0.258965 11.2431
505 1 1 0 1 -6.36604 -2.1253 14.9944
506 1 1 0 1 -1.53096 4.37404 16.2727
507 1 1 0 1 -2.48689 4.33558 -2.42587
508 1 1 0 1 -3.49178 3.20678 1.69525
509 1 1 0 1 -1.06114 4.65097 3.29995
510 1 1 0 1 -5.76046 -3.03975 -0.0909744
511 1 1 0 1 2.01558 0.97859 2.03856
512 1 1 0 1 -5.06801 8.43978 7.76486
513 1 1 0 1 -2.5028 -3.86916 7.48691
514 1 1 0 1 -2.79864 1.60914 2.63552
515 1 1 0 1 7.46128 6.7227 3.33523
516 1 1 0 1 -7.36032 4.43288 11.7843
517 1 1 0 1 -4.65921 0.273212 8.99821
518 1 1 0 1 0.0145154 1.8611 4.52001
519 1 1 0 1 -0.632993 2.60879 18.28
520 1 1 0 1 0.787904 -0.445594 10.1225
521 1 1 0 1 -1.00714 7.1947 11.0805
522 1 1 0 1 -5.28359 8.03478 8.74783
523 1 1 0 1 1.41616 0.355634 13.2834
524 1 1 0 1 -2.40067 2.542 14.9736
525 1 1 0 1 -5.37915 2.09724 25.2027
526 1 1 0 1 3.7302 -4.86542 25.7323
527 1 1 0 1 -1.03811 7.41506 17.4451
528 1 1 0 1 3.71002 4.55956 24.2892
529 1 1 0 1 11.2192 8.04976 3.35224
530 1 1 0 1 0.273798 0.43249 -5.30539
531 1 1 0 1 0.232952 9.44479 -3.95642
532 1 1 0 1 -1.22809 -3.71141 2.24394
533 1 1 0 1 -4.99304 2.81654 -1.53786
534 1 1 0 1 -0.103461 -0.670033 5.34584
535 1 1 0 1 1.7456 3.96995 -0.563112
536 1 1 0 1 -1.09358 8.32379 3.29699
537 1 1 0 1 -3.59069 3.2423 6.62843
538 1 1 0 1 -4.91474 -1.86399 13.2725
539 1 1 0 1 -1.59064 5.05835 14.6197
540 1 1 0 1 0.210388 6.54676 10.9719
541 1 1 0 1 -5.8254 7.76315 11.8584
542 1 1 0 1 -4.50511 6.78794 12.3422
543 1 1 0 1 -7.09968 8.55278 11.9668
544 1 1 0 1 0.446677 4.77723 11.1108
545 1 1 0 1 -0.375379 4.56805 12.1619
546 1 1 0 1 -1.96874 -1.46739 14.2119
547 1 1 0 1 -0.35736 0.714497 19.7313
548 1 1 0 1 0.300154 7.61959 28.1833
549 1 1 0 1 -1.47821 8.35646 24.2117
550 1 1 0 1 -3.78624 6.61956 21.2295
551 1 1 0 1 -0.882964 9.00429 -0.541403
552 1 1 0 1 -4.47223 5.62934 -3.06543
553 1 1 0 1 -1.16576 7.36212 1.27109
554 1 1 0 1 1.38229 5.21515 -2.55238
555 1 1 0 1 -1.06504 8.76067 -3.25062
556 1 1 0 1 -1.71459 2.68396 3.79127
557 1 1 0 1 3.8057 4.0736 3.43446
558 1 1 0 1 1.98605 3.0995 7.17527
559 1 1 0 1 -2.35477 -0.609266 11.7447
560 1 1 0 1 -4.20678 -1.95766 2.6204
561 1 1 0 1 0.0750184 5.27444 15.2057
562 1 1 0 1 3.19788 5.0344 16.7418
563 1 1 0 1 -3.05132 2.83499 13.9784
564 1 1 0 1 -4.95331 -1.90152 7.91603
565 1 1 0 1 7.45308 4.58169 16.4542
566 1 1 0 1 3.38426 6.30387 15.5277
567 1 1 0 1 -1.8196 6.2359 17.1491
568 1 1 0 1 6.00849 6.87062 17.1592
569 1 1 0 1 1.44094 7.64776 16.9755
570 1 1 0 1 -4.94707 3.99546 21.7081
571 1 1 0 1 4.25926 6.41117 19.622
572 1 1 0 1 -0.528809 3.49618 21.2672
573 1 1 0 1 -0.149566 6.91459 -0.357354
574 1 1 0 1 -2.1584 5.98925 7.39091
575 1 1 0 1 -3.90476 1.26359 -2.67887
576 1 1 0 1 -3.62465 6.022 -2.14551
577 1 1 0 1 -5.19878 1.48462 4.95479
578 1 1 0 1 -4.08345 9.74028 13.7877
579 1 1 0 1 -4.48282 3.73009 5.5204
580 1 1 0 1 -1.67676 2.01851 11.5823
581 1 1 0 1 -3.00233 9.12846 12.0034
582 1 1 0 1 1.04933 3.65792 10.9598
583 1 1 0 1 -5.01538 7.18282 11.5457
584 1 1 0 1 -2.06705 9.63045 15.9022
585 1 1 0 1 -8.16365 2.43356 15.1509
586 1 1 0 1 1.92798 15.8352 17.4686
587 1 1 0 1 -7.5611 13.894 14.2915
588 1 1 0 1 -5.51202 2.80049 19.1103
589 1 1 0 1 -5.91426 4.84262 17.5828
590 1 1 0 1 -7.65691 7.04907 14.9908
591 1 1 0 1 -4.98422 5.27377 13.6792
592 1 1 0 1 -0.0642501 0.138733 24.4434
593 1 1 0 1 -0.0751559 5.83206 16.1069
594 1 1 0 1 -8.37357 -4.22369 19.7367
595 1 1 0 1 -0.840227 6.14515 -5.19529
596 1 1 0 1 1.58566 7.48518 3.80268
597 1 1 0 1 -7.56184 1.76908 5.17378
598 1 1 0 1 3.87269 6.98188 2.15015
599 1 1 0 1 2.81635 9.10732 3.20285
600 1 1 0 1 -0.637705 9.82309 4.37964
601 1 1 0 1 -4.96382 5.94064 6.1865
602 1 1 0 1 1.76229 -4.74376 2.18216
603 1 1 0 1 2.34229 -4.43922 14.3515
604 1 1 0 1 6.53919 7.27854 15.1421
605 1 1 0 1 1.23976 5.81746 11.0797
606 1 1 0 1 -6.9869 -2.89133 14.3877
607 1 1 0 1 -3.58814 7.14228 7.7669
608 1 1 0 1 -0.514244 -1.78515 10.705
609 1 1 0 1 5.37526 10.1766 14.7994
610 1 1 0 1 1.08402 5.66431 13.452
611 1 1 0 1 1.29938 4.83174 10.0999
612 1 1 0 1 4.97987 3.25838 20.5149
613 1 1 0 1 -1.15452 2.93464 15.6644
614 1 1 0 1 -4.1034 5.60614 25.7906
615 1 1 0 1 -9.6027 6.64855 21.0756
616 1 1 0 1 -5.92877 8.07254 18.5474
617 1 1 0 1 0.753781 1.66661 -3.31553
618 1 1 0 1 -6.97304 7.0533 -0.759309
619 1 1 0 1 -0.379005 15.3447 2.94258
620 1 1 0 1 3.61934 8.31378 6.27073
621 1 1 0 1 -2.74833 5.60485 4.06548
622 1 1 0 1 -4.49406 4.75358 5.65304
623 1 1 0 1 -5.0251 8.40973 5.48829
624 1 1 0 1 -0.085436 4.46225 2.87197
625 1 1 0 1 -2.67459 5.28744 5.22798
626 1 1 0 1 0.448973 8.35848 14.2053
627 1 1 0 1 -5.21746 -1.15774 16.6538
628 1 1 0 1 2.0068 0.381234 5.13059
629 1 1 0 1 -0.28969 10.0312 16.746
630 1 1 0 1 0.679779 11.8599 13.5054
631 1 1 0 1 0.238757 9.20709 15.7189
632 1 1 0 1 4.65199 9.34536 17.2311
633 1 1 0 1 -12.9444 8.81616 15.9864
634 1 1 0 1 -3.29414 6.83241 16.9258
635 1 1 0 1 2.36797 5.14623 17.4994
636 1 1 0 1 0.32184 5.16889 19.1877
637 1 1 0 1 -4.28948 3.19968 19.1632
638 1 1 0 1 -2.51254 4.95577 18.5631
639 1 1 0 1 -4.1239 0.384708 6.53806
640 1 1 0 1 0.481027 8.92202 4.92245
641 1 1 0 1 7.0225 6.02934 0.323032
642 1 1 0 1 4.00778 11.0153 5.83511
643 1 1 0 1 -1.13024 10.926 6.82194
644 1 1 0 1 -2.8752 5.91917 0.818019
645 1 1 0 1 -1.12197 3.38148 7.3745
646 1 1 0 1 2.47753 4.06387 6.84942
647 1 1 0 1 -4.66215 8.46683 -1.49569
648 1 1 0 1 -3.71654 11.4359 9.25024
649 1 1 0 1 -3.26663 10.8196 7.18495
650 1 1 0 1 3.31556 7.26723 12.1259
651 1 1 0 1 0.458511 8.03154 8.06231
652 1 1 0 1 -5.20924 14.908 17.1829
653 1 1 0 1 -5.87711 20.1479 13.8286
654 1 1 0 1 2.48456 10.2118 21.4721
655 1 1 0 1 -3.75976 6.92529 9.62388
656 1 1 0 1 -7.11656 5.46271 17.635
657 1 1 0 1 2.46449 8.0866 15.0474
658 1 1 0 1 3.34438 11.0582 26.4724
659 1 1 0 1 -3.78752 7.8844 17.1889
660 1 1 0 1 1.97367 7.94859 19.4127
661 1 1 0 1 -0.715092 10.6112 0.250449
662 1 1 0 1 1.36364 10.9186 -3.76752
663 1 1 0 1 -1.85241 6.22924 2.55821
664 1 1 0 1 -4.178 10.2352 4.99201
665 1 1 0 1 -6.55618 3.62949 4.93707
666 1 1 0 1 4.71097 10.0668 15.9882
667 1 1 0 1 -4.21114 7.1554 0.0636046
668 1 1 0 1 -7.12306 4.76413 2.13591
669 1 1 0 1 0.217691 7.48113 4.45461
670 1 1 0 1 -2.87654 5.1059 9.1592
671 1 1 0 1 1.25549 4.12998 2.67007
672 1 1 0 1 2.18671 17.7382 15.4113
673 1 1 0 1 -5.06532 14.8616 14.6635
674 1 1 0 1 -2.25273 16.0563 17.1147
675 1 1 0 1 -2.17802 12.7968 19.8951
676 1 1 0 1 -6.84763 4.77562 16.8828
677 1 1 0 1 -3.36496 10.3039 21.0092
678 1 1 0 1 5.73886 6.64139 18.7849
679 1 1 0 1 -9.72042 4.85992 16.4666
680 1 1 0 1 -2.79437 8.8563 14.3939
681 1 1 0 1 -1.03414 9.73017 20.6449
682 1 1 0 1 2.19411 12.8037 24.7089
683 1 1 0 1 -2.00288 11.9919 2.66986
684 1 1 0 1 0.650282 4.72211 -0.727338
685 1 1 0 1 -3.10193 15.5889 10.2678
686 1 1 0 1 1.26717 3.89112 6.46501
687 1 1 0 1 -0.434523 18.0056 4.39472
688 1 1 0 1 -4.02788 11.6222 6.37813
689 1 1 0 1 -2.81921 3.29207 5.99805
690 1 1 0 1 2.13921 8.49387 14.1764
691 1 1 0 1 -0.196802 2.95848 4.39829
692 1 1 0 1 0.0394292 7.58715 10.491
693 1 1 0 1 0.658722 6.95183 18.7306
694 1 1 0 1 -5.61508 13.2065 15.1869
695 1 1 0 1 -2.97672 9.68173 17.1301
696 1 1 0 1 -2.09583 6.54209 18.6439
697 1 1 0 1 -0.166862 10.3505 12.9542
698 1 1 0 1 -9.83275 9.6457 18.8057
699 1 1 0 1 0.464565 6.26256 19.6302
700 1 1 0 1 3.00681 13.3936 12.964
701 1 1 0 1 -2.05994 13.2776 17.5162
702 1 1 0 1 -4.4366 5.80707 17.6037
703 1 1 0 1 -1.75854 12.4929 18.831
704 1 1 0 1 1.52656 18.2237 19.1702
705 1 1 0 1 -1.49526 10.9448 3.81969
706 1 1 0 1 -0.670926 7.82784 -0.874633
707 1 1 0 1 -1.29196 24.9731 2.03266
708 1 1 0 1 3.3985 8.88802 1.30478
709 1 1 0 1 -5.8745 11.1225 4.36482
710 1 1 0 1 1.21938 13.8645 6.09179
711 1 1 0 1 -6.07515 6.57652 6.70013
712 1 1 0 1 -6.36571 14.7756 12.7985
713 1 1 0 1 -4.36958 12.1065 8.71968
714 1 1 0 1 2.39232 11.1809 5.70529
715 1 1 0 1 -2.56648 10.3943 14.9436
716 1 1 0 1 -4.66793 13.8152 15.2348
717 1 1 0 1 -6.90888 14.6454 15.5083
718 1 1 0 1 -1.5381 12.0462 13.9224
719 1 1 0 1 -3.00345 9.56698 18.2206
720 1 1 0 1 -2.20787 13.3952 20.7569
721 1 1 0 1 -7.5179 11.1497 15.7762
722 1 1 0 1 4.43697 15.8134 27.6133
723 1 1 0 1 -0.613366 11.5837 18.1855
724 1 1 0 1 -0.0551258 13.2021 23.917
725 1 1 0 1 1.87265 15.135 27.1459
726 1 1 0 1 -5.19474 18.4628 25.2766
727 1 1 0 1 1.21492 13.787 0.674645
728 1 1 0 1 -2.29121 10.9565 -0.161684
729 1 1 0 1 -7.61965 5.55876 -3.25668
730 1 1 0 1 -1.09418 16.7581 4.65129
731 1 1 0 1 -0.436545 12.6526 6.93024
732 1 1 0 1 6.13734 12.2141 4.44976
733 1 1 0 1 -4.52525 9.8429 1.8158
734 1 1 0 1 2.17649 5.87554 6.85113
735 1 1 0 1 -3.49754 14.993 5.26407
736 1 1 0 1 -7.22915 17.0147 -0.303958
737 1 1 0 1 0.273289 9.4836 14.7403
738 1 1 0 1 10.3156 14.6643 8.21976
739 1 1 0 1 -4.34347 9.38924 16.9644
740 1 1 0 1 -2.92654 11.7723 21.5492
741 1 1 0 1 -3.95647 8.46213 19.2432
742 1 1 0 1 3.49981 7.06262 21.7308
743 1 1 0 1 -0.496583 11.7207 22.289
744 1 1 0 1 4.64378 13.4737 26.7224
745 1 1 0 1 -1.53216 9.12736 22.1778
746 1 1 0 1 -0.764881 10.9779 19.0119
747 1 1 0 1 -0.934144 11.9422 25.0048
748 1 1 0 1 1.13796 15.9245 27.5436
749 1 1 0 1 0.345341 13.0776 5.1748
750 1 1 0 1 1.9166 10.681 6.87434
751 1 1 0 1 -12.6057 11.7008 7.27978
752 1 1 0 1 0.590102 15.8205 6.50069
753 1 1 0 1 -0.566695 9.57411 7.43839
754 1 1 0 1 -0.297129 11.4416 2.00914
755 1 1 0 1 1.93083 19.9866 1.14002
756 1 1 0 1 -9.68756 21.5697 2.6694
757 1 1 0 1 -4.85143 13.3155 14.1849
758 1 1 0 1 -4.38117 17.1655 13.8759
759 1 1 0 1 -6.74135 7.49602 7.27499
760 1 1 0 1 -1.4564 8.25613 16.8077
761 1 1 0 1 -3.13003 18.2532 15.2765
762 1 1 0 1 -6.29861 12.7728 12.8638
763 1 1 0 1 -0.884759 14.1968 12.0393
764 1 1 0 1 -3.37792 18.9566 14.1313
765 1 1 0 1 1.26467 12.4932 20.0306
766 1 1 0 1 -3.14647 13.8295 16.669
767 1 1 0 1 -3.12494 13.1114 20.2877
768 1 1 0 1 -2.73074 13.7234 23.6255
769 1 1 0 1 5.15462 8.31933 21.896
770 1 1 0 1 -2.24726 14.7583 23.7014
771 1 1 0 1 -4.26822 12.4766 4.22103
772 1 1 0 1 -1.18873 14.877 12.9134
773 1 1 0 1 -3.37073 13.0168 4.06535
774 1 1 0 1 -2.16696 12.9583 12.8316
775 1 1 0 1 -7.09058 13.1236 -1.91427
776 1 1 0 1 -1.44252 8.83464 6.31829
777 1 1 0 1 -4.15752 17.4878 9.36719
778 1 1 0 1 -2.97665 11.0884 11.1455
779 1 1 0 1 -1.03555 17.4274 16.8173
780 1 1 0 1 -5.55627 14.887 11.8702
781 1 1 0 1 2.77947 16.0525 19.8409
782 1 1 0 1 -3.91594 15.9426 16.2441
783 1 1 0 1 -1.82259 17.1658 14.0021
784 1 1 0 1 -2.35018 16.7447 22.6702
785 1 1 0 1 -4.49137 21.7737 17.5647
786 1 1 0 1 -2.45534 10.6067 18.9655
787 1 1 0 1 5.28664 13.7108 23.2827
788 1 1 0 1 -10.806 17.7616 13.9313
789 1 1 0 1 -3.07814 18.8564 20.7081
790 1 1 0 1 -1.12597 13.2969 23.8168
791 1 1 0 1 -1.25095 13.4852 20.2688
792 1 1 0 1 -0.775626 10.5665 23.3619
793 1 1 0 1 -7.88198 13.4737 4.38434
794 1 1 0 1 2.91834 17.3794 3.05813
795 1 1 0 1 -0.530714 19.8216 -2.34457
796 1 1 0 1 -1.03047 14.5283 9.29705
797 1 1 0 1 -2.65546 22.1975 2.34699
798 1 1 0 1 -1.3949 17.4139 1.15506
799 1 1 0 1 -2.99041 13.3024 9.41608
800 1 1 0 1 4.34063 7.54403 2.87149
801 1 1 0 1 7.56242 16.1323 12.0534
802 1 1 0 1 -7.0818 19.963 10.7496
803 1 1 0 1 -1.24837 17.2012 18.5791
804 1 1 0 1 -1.63868 13.2222 15.4552
805 1 1 0 1 -6.39457 16.2465 17.6557
806 1 1 0 1 -1.45344 6.82651 8.02895
807 1 1 0 1 -2.30378 15.6101 15.8945
808 1 1 0 1 1.10508 20.6475 10.6989
809 1 1 0 1 -3.89082 16.8429 14.809
810 1 1 0 1 -0.308722 16.4849 22.2754