ITEM: TIMESTEP
15000
ITEM: NUMBER OF ATOMS
6752
ITEM: BOX BOUNDS pp pp pp
0.0000000000000000e+00 2.2000000000000000e+01
0.0000000000000000e+00 2.2000000000000000e+01
0.0000000000000000e+00 2.2000000000000000e+01
ITEM: ATOMS id mol type q mass xu yu zu
1 1 1 0 1 -4.78919 -6.21885 4.13866
2 1 1 0 1 -2.69781 2.19891 -0.328182
3 1 1 0 1 -3.28643 1.26179 6.38433
4 1 1 0 1 -10.4069 -2.52517 4.67676
5 1 1 0 1 -0.744428 5.72323 2.81095
6 1 1 0 1 -7.96752 0.250326 8.75302
7 1 1 0 1 -0.861868 6.95016 3.99016
8 1 1 0 1 0.875711 -4.44833 11.8301
9 1 1 0 1 0.454639 2.81415 10.1496
10 1 1 0 1 -9.56832 -0.0141041 10.8505
11 1 1 0 1 -0.60489 3.45362 7.80791
12 1 1 0 1 -6.92286 -3.66091 13.9181
13 1 1 0 1 0.241118 2.19359 12.6813
14 1 1 0 1 -1.01825 11.2245 14.3141
15 1 1 0 1 -8.63239 3.33484 11.6644
16 1 1 0 1 -4.19962 -3.07382 13.2685
17 1 1 0 1 0.468038 1.95168 15.9717
18 1 1 0 1 -4.1838 -1.47968 21.7041
19 1 1 0 1 -0.70031 5.65413 18.0511
20 1 1 0 1 0.604739 0.0933647 17.9005
21 1 1 0 1 -5.87355 6.1778 15.3304
22 1 1 0 1 -5.50533 11.3216 19.2401
23 1 1 0 1 -7.60068 -1.73635 3.54149
24 1 1 0 1 -3.72137 2.89974 0.453663
25 1 1 0 1 -1.92295 -2.39461 -6.2145
26 1 1 0 1 1.73657 -0.683633 7.70019
27 1 1 0 1 -9.60307 -2.02615 11.1074
28 1 1 0 1 -4.95389 3.98474 0.811349
29 1 1 0 1 -4.13922 0.100481 11.5408
30 1 1 0 1 -5.20387 1.06171 12.8631
31 1 1 0 1 -2.13028 5.177 12.5901
32 1 1 0 1 -5.53839 -2.89983 5.41044
33 1 1 0 1 -8.53398 3.38262 14.3973
34 1 1 0 1 -1.6011 5.29201 14.7242
35 1 1 0 1 -2.86199 2.17688 12.5074
36 1 1 0 1 2.06993 -0.0625967 6.74487
37 1 1 0 1 -5.72691 0.0628414 16.7597
38 1 1 0 1 2.33053 -1.56999 20.5151
39 1 1 0 1 -1.57016 2.64312 9.85249
40 1 1 0 1 -0.538885 6.82426 21.8451
41 1 1 0 1 -6.27665 0.396367 12.5324
42 1 1 0 1 -9.03461 0.507207 26.1592
43 1 1 0 1 -2.14156 12.0708 24.2157
44 1 1 0 1 -2.79967 9.43521 17.4788
45 1 1 0 1 -11.6154 7.08734 8.64171
46 1 1 0 1 -3.05101 4.9325 9.91726
47 1 1 0 1 -0.599184 1.92409 -4.19558
48 1 1 0 1 -10.1797 6.40687 2.2085
49 1 1 0 1 -0.691127 5.10797 -1.20758
50 1 1 0 1 -3.4906 5.82673 0.293669
51 1 1 0 1 -2.47525 3.23315 6.00879
52 1 1 0 1 1.01492 5.18556 14.4905
53 1 1 0 1 -3.24602 2.12546 5.52786
54 1 1 0 1 -6.0815 -0.43151 12.0638
55 1 1 0 1 -5.52769 2.62327 11.6397
56 1 1 0 1 0.227941 1.02127 8.41021
57 1 1 0 1 -2.07939 10.28 13.9495
58 1 1 0 1 -6.7027 12.6927 12.0741
59 1 1 0 1 -7.09637 2.65428 11.8321
60 1 1 0 1 -1.60387 2.97938 19.1125
61 1 1 0 1 -7.95577 5.66659 10.6071
62 1 1 0 1 -0.726913 1.25228 21.0278
63 1 1 0 1 -2.73749 9.42614 6.9083
64 1 1 0 1 -2.6545 -0.476187 14.9227
65 1 1 0 1 -7.29575 5.07896 19.6543
66 1 1 0 1 -8.15599 1.70508 22.4042
67 1 1 0 1 -3.75937 1.02251 -3.84243
68 1 1 0 1 -4.18065 3.95176 -5.61082
69 1 1 0 1 -4.39751 6.44538 -1.97862
70 1 1 0 1 -1.67308 7.09162 5.37441
71 1 1 0 1 2.38597 2.22947 5.40504
72 1 1 0 1 -12.4646 4.2618 3.42875
73 1 1 0 1 4.43621 -0.00510631 11.059
74 1 1 0 1 -4.30043 5.71863 10.0736
75 1 1 0 1 0.16062 0.484948 11.5971
76 1 1 0 1 -9.51806 -0.334789 9.74808
77 1 1 0 1 -4.68784 -2.37575 7.17503
78 1 1 0 1 -1.85394 7.09001 10.4248
79 1 1 0 1 -6.15216 1.32849 13.3008
80 1 1 0 1 2.69411 2.73542 11.112
81 1 1 0 1 -0.551862 8.38688 15.2019
82 1 1 0 1 -3.19645 -2.95377 13.1794
83 1 1 0 1 -2.3897 -1.83118 16.6775
84 1 1 0 1 0.250413 5.24155 18.3516
85 1 1 0 1 -5.78032 2.0894 25.4685
86 1 1 0 1 -4.50402 1.47118 20.2438
87 1 1 0 1 -3.3884 -1.45 22.5655
88 1 1 0 1 -4.00208 10.1979 21.0654
89 1 1 0 1 -3.10674 9.47664 -0.515992
90 1 1 0 1 -0.963628 9.14798 5.29511
91 1 1 0 1 -5.56585 0.620831 8.33276
92 1 1 0 1 -5.22795 6.89831 7.77573
93 1 1 0 1 -3.22527 9.21523 9.80575
94 1 1 0 1 -3.99822 -3.3481 3.45866
95 1 1 0 1 -6.25313 7.69205 7.67664
96 1 1 0 1 -1.38381 5.68752 9.85257
97 1 1 0 1 -2.68587 10.1809 12.6764
98 1 1 0 1 0.523254 5.92272 5.97535
99 1 1 0 1 -1.85403 6.12047 10.8999
100 1 1 0 1 1.12657 0.754117 6.41703
101 1 1 0 1 -4.94641 7.63519 10.2192
102 1 1 0 1 -4.02383 7.27295 12.2142
103 1 1 0 1 -4.28726 9.04297 9.1628
104 1 1 0 1 -4.96896 12.8463 11.6981
105 1 1 0 1 -3.15151 7.36146 3.50663
106 1 1 0 1 -1.93655 3.04164 22.3162
107 1 1 0 1 -6.09667 11.7569 17.4643
108 1 1 0 1 -1.29729 10.151 16.1253
109 1 1 0 1 -7.09874 6.63325 22.8017
110 1 1 0 1 -6.97183 8.80058 22.8064
111 1 1 0 1 -5.3098 3.10339 1.86042
112 1 1 0 1 -1.66234 4.09311 -3.2852
113 1 1 0 1 -0.0106673 13.7574 9.62071
114 1 1 0 1 -0.901125 7.56885 4.74424
115 1 1 0 1 -2.00823 13.3896 3.9682
116 1 1 0 1 0.219136 13.4885 5.20501
117 1 1 0 1 -4.69465 9.56646 6.63081
118 1 1 0 1 -3.24219 1.48034 9.00183
119 1 1 0 1 -3.96689 -0.800369 9.55765
120 1 1 0 1 -3.53577 1.91991 10.2576
121 1 1 0 1 0.0206414 3.29092 5.98171
122 1 1 0 1 -4.30004 6.45682 9.36602
123 1 1 0 1 -4.61292 7.98159 12.9042
124 1 1 0 1 -7.06068 9.95742 15.2382
125 1 1 0 1 -7.086 9.21723 6.86946
126 1 1 0 1 -6.74502 7.73585 17.7679
127 1 1 0 1 -3.39696 9.49021 18.2897
128 1 1 0 1 -8.59388 14.0305 12.3171
129 1 1 0 1 -3.27501 6.15388 20.0971
130 1 1 0 1 -7.25942 6.84892 18.6763
131 1 1 0 1 -6.39904 1.50256 12.1346
132 1 1 0 1 -6.61606 5.25609 24.3532
133 1 1 0 1 -0.364592 8.18033 0.599594
134 1 1 0 1 -7.39393 6.58643 7.32697
135 1 1 0 1 -6.57087 0.275834 0.338367
136 1 1 0 1 -4.55946 11.5499 3.42892
137 1 1 0 1 -6.73826 7.20446 6.44006
138 1 1 0 1 -8.34183 10.6686 10.7467
139 1 1 0 1 0.0166812 6.89547 3.2577
140 1 1 0 1 -8.93114 9.12532 3.15198
141 1 1 0 1 5.88793 6.71121 0.318247
142 1 1 0 1 -3.24355 3.39502 14.1216
143 1 1 0 1 -3.73462 4.96392 13.9459
144 1 1 0 1 0.328421 0.0902609 9.4525
145 1 1 0 1 -4.74296 8.64298 19.0252
146 1 1 0 1 -4.79196 13.1316 20.4571
147 1 1 0 1 -2.3685 15.4334 13.7982
148 1 1 0 1 -6.20523 14.5446 12.7661
149 1 1 0 1 -4.35471 7.46285 24.0596
150 1 1 0 1 -8.77349 7.75231 11.2924
151 1 1 0 1 -6.55695 3.36056 22.2734
152 1 1 0 1 -5.28714 6.58273 19.2606
153 1 1 0 1 -2.24596 5.32901 20.4512
154 1 1 0 1 -1.96865 5.42606 28.6906
155 1 1 0 1 -1.52824 5.05654 -3.85656
156 1 1 0 1 -2.56624 3.84729 0.215628
157 1 1 0 1 -2.2246 7.68078 0.241887
158 1 1 0 1 -1.60742 8.35709 2.56237
159 1 1 0 1 -5.36803 10.5068 0.216634
160 1 1 0 1 -7.24172 0.479747 6.15551
161 1 1 0 1 0.171119 9.41523 2.73308
162 1 1 0 1 -2.02394 4.66568 7.56279
163 1 1 0 1 1.53419 5.55368 7.67881
164 1 1 0 1 -5.56761 4.32628 13.0048
165 1 1 0 1 -1.828 3.5972 7.21271
166 1 1 0 1 -1.48574 8.87506 17.9248
167 1 1 0 1 1.21606 12.4858 15.6082
168 1 1 0 1 -3.97606 9.11659 19.7364
169 1 1 0 1 -6.03042 12.2307 18.8931
170 1 1 0 1 0.79164 6.05934 20.0659
171 1 1 0 1 -1.52504 11.7888 20.6562
172 1 1 0 1 -1.17908 10.2179 19.8955
173 1 1 0 1 -1.36794 7.41591 14.3786
174 1 1 0 1 1.00508 4.37531 25.8126
175 1 1 0 1 -7.31171 9.01756 21.615
176 1 1 0 1 0.169503 3.65642 25.5686
177 1 1 0 1 -7.92304 2.63944 -0.0148567
178 1 1 0 1 -1.42605 15.4511 7.82597
179 1 1 0 1 -3.79001 15.3828 -2.44216
180 1 1 0 1 0.107274 13.4631 4.10004
181 1 1 0 1 -3.35559 13.6171 4.39691
182 1 1 0 1 -3.55507 13.5286 5.42293
183 1 1 0 1 -6.1821 12.5756 4.73202
184 1 1 0 1 -3.19892 4.90899 8.30329
185 1 1 0 1 -9.08569 0.418818 8.75054
186 1 1 0 1 -12.1057 13.0445 6.13362
187 1 1 0 1 -7.72451 14.4144 11.3363
188 1 1 0 1 -2.96797 2.59845 11.0441
189 1 1 0 1 -1.23133 12.0875 12.6368
190 1 1 0 1 -7.19194 5.55193 13.4955
191 1 1 0 1 -3.1681 11.0911 20.0381
192 1 1 0 1 -2.94227 10.8354 18.8248
193 1 1 0 1 -1.73876 6.25206 18.5605
194 1 1 0 1 3.27471 11.5389 22.5341
195 1 1 0 1 -2.2168 9.41444 15.9812
196 1 1 0 1 -0.0195437 6.78856 18.8348
197 1 1 0 1 -3.47154 8.77216 16.8505
198 1 1 0 1 4.52683 10.1045 26.5275
199 1 1 0 1 3.04335 7.43958 0.514769
200 1 1 0 1 3.19407 8.28162 4.48939
201 1 1 0 1 -4.44326 9.5878 -0.0795608
202 1 1 0 1 -0.600922 7.66631 8.69692
203 1 1 0 1 -5.92119 8.05996 3.56711
204 1 1 0 1 -4.46002 12.1732 8.48237
205 1 1 0 1 -2.38701 5.23874 4.03892
206 1 1 0 1 -1.1267 10.1842 4.99393
207 1 1 0 1 -7.47984 5.891 1.4188
208 1 1 0 1 -4.67528 4.74221 12.9397
209 1 1 0 1 -6.26168 2.09454 7.49508
210 1 1 0 1 -6.74822 10.0064 11.7697
211 1 1 0 1 1.11966 8.16971 10.1545
212 1 1 0 1 -5.43088 7.50526 8.89794
213 1 1 0 1 2.72356 10.9377 21.4135
214 1 1 0 1 -11.8332 18.1107 18.6745
215 1 1 0 1 -4.5079 10.0487 19.9902
216 1 1 0 1 -5.68951 7.10986 20.0258
217 1 1 0 1 -7.04769 15.2902 22.9752
218 1 1 0 1 -2.46594 11.4632 21.4643
219 1 1 0 1 0.389068 12.4127 25.2679
220 1 1 0 1 0.320049 13.3008 22.6759
221 1 1 0 1 6.15097 10.2448 -4.31509
222 1 1 0 1 -5.63943 12.6745 2.9022
223 1 1 0 1 -10.5342 10.5935 3.26183
224 1 1 0 1 -2.73805 8.88612 0.964569
225 1 1 0 1 -7.52557 14.6605 6.04429
226 1 1 0 1 -10.977 14.0774 9.05604
227 1 1 0 1 -9.47074 15.7818 4.50685
228 1 1 0 1 -8.72893 16.6298 6.17159
229 1 1 0 1 1.3359 9.69625 8.27202
230 1 1 0 1 -5.04392 13.9505 6.4881
231 1 1 0 1 -6.46192 10.944 13.2355
232 1 1 0 1 -1.50389 2.25174 13.1097
233 1 1 0 1 -5.64925 12.5488 12.3316
234 1 1 0 1 -10.2425 9.38179 11.1825
235 1 1 0 1 -2.51122 10.6046 16.5344
236 1 1 0 1 -9.37705 14.9101 16.1037
237 1 1 0 1 -8.0949 14.0452 20.2981
238 1 1 0 1 -5.46089 13.1693 13.8859
239 1 1 0 1 -6.72818 10.5878 16.6487
240 1 1 0 1 -4.67869 11.7838 16.2486
241 1 1 0 1 -3.66181 8.39544 20.9797
242 1 1 0 1 -1.36793 5.93322 22.8574
243 1 1 0 1 -1.5222 14.2609 4.58351
244 1 1 0 1 -4.12802 16.4502 -0.786839
245 1 1 0 1 -5.4229 14.0066 1.53531
246 1 1 0 1 -1.09924 11.6239 5.33136
247 1 1 0 1 -7.43279 12.4901 4.70937
248 1 1 0 1 -0.414741 2.39094 6.18151
249 1 1 0 1 -7.45404 12.518 6.71039
250 1 1 0 1 -5.09118 6.06474 8.81601
251 1 1 0 1 -3.41744 9.25894 4.99357
252 1 1 0 1 -0.363079 4.24665 5.84643
253 1 1 0 1 -0.88728 0.742394 14.2316
254 1 1 0 1 1.2347 14.0544 13.4504
255 1 1 0 1 -7.41682 5.59181 6.40437
256 1 1 0 1 -9.46066 15.8341 10.4443
257 1 1 0 1 0.00364202 17.1152 17.1546
258 1 1 0 1 -3.05437 12.8319 14.6724
259 1 1 0 1 -3.84454 15.4965 20.6213
260 1 1 0 1 -2.01444 13.6731 18.4068
261 1 1 0 1 -2.62887 7.86105 16.0789
262 1 1 0 1 -2.27047 14.0424 22.2033
263 1 1 0 1 0.0379396 12.8408 16.7345
264 1 1 0 1 0.74064 18.0295 23.9974
265 1 1 0 1 -2.56038 14.1582 -1.47075
266 1 1 0 1 5.01204 13.7248 2.16749
267 1 1 0 1 -2.27093 16.1706 6.76917
268 1 1 0 1 -3.87939 8.74659 0.848048
269 1 1 0 1 1.46628 11.7762 11.6774
270 1 1 0 1 -2.91744 14.9844 -0.153731
271 1 1 0 1 -1.75099 4.80315 10.2398
272 1 1 0 1 -9.57677 11.9182 13.5383
273 1 1 0 1 -5.5272 13.0194 6.82475
274 1 1 0 1 -6.90328 8.72439 10.4143
275 1 1 0 1 -10.0574 6.78258 11.045
276 1 1 0 1 -2.49042 12.7818 13.7305
277 1 1 0 1 -2.39722 9.64127 10.3553
278 1 1 0 1 2.16906 13.3584 12.073
279 1 1 0 1 -4.48781 14.8738 12.8916
280 1 1 0 1 -6.57397 12.6956 5.69781
281 1 1 0 1 -1.7877 11.0309 25.6131
282 1 1 0 1 -6.84073 12.7386 9.88614
283 1 1 0 1 0.081995 13.2422 12.7624
284 1 1 0 1 -4.38714 13.6014 18.2415
285 1 1 0 1 -4.98652 8.65301 15.618
286 1 1 0 1 -3.56352 11.7868 19.2951
287 1 1 0 1 -3.85094 20.0609 3.08983
288 1 1 0 1 -1.14271 16.5407 0.632162
289 1 1 0 1 -7.42228 2.80711 6.19739
290 1 1 0 1 -4.34272 8.85956 4.74082
291 1 1 0 1 -8.88934 8.8935 11.3272
292 1 1 0 1 -8.94174 15.2176 8.02036
293 1 1 0 1 -0.801844 8.86249 6.53376
294 1 1 0 1 -1.61684 12.7016 9.76902
295 1 1 0 1 -4.50832 8.71768 13.674
296 1 1 0 1 -2.98425 12.1963 9.90661
297 1 1 0 1 -6.58021 12.0935 7.67557
298 1 1 0 1 -7.63515 7.24787 17.3055
299 1 1 0 1 1.12089 17.2768 15.4271
300 1 1 0 1 0.950844 18.946 19.8382
301 1 1 0 1 -6.10498 16.5641 15.6038
302 1 1 0 1 -5.24593 14.1 15.9687
303 1 1 0 1 -7.44407 16.3945 10.6681
304 1 1 0 1 1.5862 9.42215 6.96643
305 1 1 0 1 3.40551 11.0338 14.9322
306 1 1 0 1 -0.0643491 15.0807 22.6615
307 1 1 0 1 -0.29875 14.814 13.7857
308 1 1 0 1 0.86565 22.5575 32.4837
309 1 1 0 1 -2.0187 15.2832 3.7152
310 1 1 0 1 -0.436226 14.4356 3.65344
311 1 1 0 1 -6.56048 14.3505 -1.25233
312 1 1 0 1 -8.93995 8.32571 3.95916
313 1 1 0 1 -8.97761 13.7408 2.64464
314 1 1 0 1 0.0289597 11.7491 4.11412
315 1 1 0 1 0.384 7.84823 8.37434
316 1 1 0 1 -7.39077 12.8361 1.41463
317 1 1 0 1 -5.77214 13.6411 7.62797
318 1 1 0 1 -1.58701 13.7193 9.28158
319 1 1 0 1 -3.53215 11.9449 7.20121
320 1 1 0 1 0.0844508 20.8726 10.0986
321 1 1 0 1 -4.31744 16.8828 12.5038
322 1 1 0 1 0.472973 10.6667 15.8926
323 1 1 0 1 -4.01824 14.4354 11.6514
324 1 1 0 1 -4.9916 11.2641 7.08956
325 1 1 0 1 0.838527 14.2481 8.14979
326 1 1 0 1 -7.80696 14.9363 18.6158
327 1 1 0 1 -4.66367 11.9837 19.5641
328 1 1 0 1 -5.08801 18.1504 19.3286
329 1 1 0 1 2.36577 13.9959 20.471
330 1 1 0 1 0.673516 14.1589 19.7368
331 1 1 0 1 -2.86359 15.0759 7.1087
332 1 1 0 1 -3.07139 20.2416 3.88881
333 1 1 0 1 -4.06234 13.3457 6.64639
334 1 1 0 1 -6.69924 15.7401 1.85512
335 1 1 0 1 -3.8674 13.8862 7.75317
336 1 1 0 1 -7.2571 11.1309 4.76757
337 1 1 0 1 -3.85364 8.9025 7.69987
338 1 1 0 1 -0.469699 13.6087 8.65306
339 1 1 0 1 -8.40389 11.6584 5.06784
340 1 1 0 1 2.96843 11.3084 8.23406
341 1 1 0 1 -8.63808 5.00801 7.13143
342 1 1 0 1 -5.4615 14.5472 14.6898
343 1 1 0 1 -5.54419 14.7188 3.91995
344 1 1 0 1 -6.31747 13.1817 12.9379
345 1 1 0 1 -7.09201 16.9021 14.8718
346 1 1 0 1 7.36069 17.5799 16.8992
347 1 1 0 1 -0.418302 18.7404 19.8551
348 1 1 0 1 -1.72472 10.8028 18.9857
349 1 1 0 1 -1.13362 17.7723 15.7404
350 1 1 0 1 0.350476 15.1665 19.4165
351 1 1 0 1 -8.40162 20.2094 16.3752
352 1 1 0 1 0.0390488 18.5845 27.2738
353 1 1 0 1 -5.34292 18.4867 -1.6698
354 1 1 0 1 3.67374 17.8766 1.38853
355 1 1 0 1 -5.82519 10.9455 6.06049
356 1 1 0 1 -4.16241 11.6965 4.77207
357 1 1 0 1 0.587927 17.3133 3.75418
358 1 1 0 1 -2.65275 15.0011 4.85507
359 1 1 0 1 -8.50796 16.0212 4.32471
360 1 1 0 1 -3.02412 13.1387 7.62335
361 1 1 0 1 -5.88056 20.2067 11.9935
362 1 1 0 1 -0.450539 11.6145 11.6905
363 1 1 0 1 3.12778 12.3405 8.85777
364 1 1 0 1 5.14236 15.23 10.2953
365 1 1 0 1 -2.23468 7.79334 3.68041
366 1 1 0 1 -6.68835 14.8108 15.159
367 1 1 0 1 -0.340435 11.6069 8.80421
368 1 1 0 1 -3.69042 19.8253 16.7308
369 1 1 0 1 -5.49718 10.0833 12.3965
370 1 1 0 1 -2.83511 6.83838 9.57433
371 1 1 0 1 -1.78374 20.3166 24.3399
372 1 1 0 1 -4.33133 13.0856 19.3408
373 1 1 0 1 -8.49074 12.5417 22.5331
374 1 1 0 1 -3.33422 12.8711 25.0764
375 1 1 0 1 -5.65803 7.19465 5.95841
376 1 1 0 1 -4.43991 14.4215 0.484979
377 1 1 0 1 -10.1683 16.1702 0.974958
378 1 1 0 1 -7.29101 16.4544 4.146
379 1 1 0 1 -2.32199 16.5205 -2.82488
380 1 1 0 1 -8.8434 15.2717 2.25844
381 1 1 0 1 -5.54942 12.3887 7.64622
382 1 1 0 1 -11.5438 18.909 13.3127
383 1 1 0 1 -1.27025 17.7808 12.2275
384 1 1 0 1 0.599957 10.7815 8.92663
385 1 1 0 1 -3.82759 18.4338 10.5646
386 1 1 0 1 -5.25848 14.4762 8.60479
387 1 1 0 1 -7.41963 12.4971 15.9767
388 1 1 0 1 -3.8872 11.8396 20.296
389 1 1 0 1 -5.88121 11.4541 14.1261
390 1 1 0 1 -1.77471 16.435 18.2205
391 1 1 0 1 -5.24648 19.1716 19.3635
392 1 1 0 1 -7.52921 15.2581 10.7005
393 1 1 0 1 -3.29667 10.3752 13.9566
394 1 1 0 1 -4.72569 19.8419 20.1277
395 1 1 0 1 -10.0841 14.5217 11.4513
396 1 1 0 1 -1.52611 13.5611 24.5561
397 1 1 0 1 -1.21066 19.8507 1.53268
398 1 1 0 1 -3.9361 26.8934 0.808462
399 1 1 0 1 -4.28832 14.4309 -1.79583
400 1 1 0 1 -2.27552 9.13872 3.14173
401 1 1 0 1 1.88949 11.0604 7.77334
402 1 1 0 1 -4.70066 17.7242 10.3124
403 1 1 0 1 0.365247 16.607 10.2357
404 1 1 0 1 -6.39785 25.7295 5.307
405 1 1 0 1 -12.9814 14.0368 7.27833
406 1 1 0 1 -6.09777 15.737 9.40441
407 1 1 0 1 -4.11954 14.6759 6.97654
408 1 1 0 1 -9.04029 19.576 7.55148
409 1 1 0 1 -5.10858 11.9865 14.9156
410 1 1 0 1 -6.44784 8.62302 9.28445
411 1 1 0 1 2.06095 14.6955 11.8599
412 1 1 0 1 -11.1578 14.9241 8.21903
413 1 1 0 1 -7.71183 16.0585 20.118
414 1 1 0 1 -5.2983 11.6502 21.0405
415 1 1 0 1 -2.77019 15.4068 20.7762
416 1 1 0 1 -4.67551 14.828 23.3666
417 1 1 0 1 3.81437 17.8467 22.245
418 1 1 0 1 0.649033 14.1603 25.5047
419 1 1 0 1 -4.79543 16.6529 6.40556
420 1 1 0 1 -3.41372 27.7255 12.0723
421 1 1 0 1 -7.09513 16.8254 6.53439
422 1 1 0 1 -4.43489 10.5232 2.7711
423 1 1 0 1 -3.16046 21.4423 8.55481
424 1 1 0 1 -4.51292 17.1195 9.44439
425 1 1 0 1 -3.53622 17.2975 3.2461
426 1 1 0 1 -3.2076 22.4415 -0.881313
427 1 1 0 1 0.0904269 20.4301 7.57326
428 1 1 0 1 2.54903 20.8802 2.67096
429 1 1 0 1 -5.37887 23.3112 5.73481
430 1 1 0 1 1.22133 17.9521 10.1399
431 1 1 0 1 -8.97303 16.8042 14.3779
432 1 1 0 1 -2.25404 26.0602 15.3298
433 1 1 0 1 -4.0285 17.4265 14.6101
434 1 1 0 1 -3.87098 11.3653 12.9451
435 1 1 0 1 -4.29989 9.2277 20.9454
436 1 1 0 1 -9.49712 18.2127 16.0746
437 1 1 0 1 -2.89974 16.3351 15.1978
438 1 1 0 1 -5.87017 17.8246 16.9498
439 1 1 0 1 -2.24171 20.4748 19.5032
440 1 1 0 1 -3.298 14.5529 19.9987
441 1 1 0 1 -4.0348 17.1097 -3.50933
442 1 1 0 1 -4.59541 22.1239 7.95962
443 1 1 0 1 -1.08387 19.6306 -0.927564
444 1 1 0 1 -4.4923 25.1735 -0.85595
445 1 1 0 1 -6.46996 15.1673 3.22497
446 1 1 0 1 -2.52515 5.77878 9.5615
447 1 1 0 1 -2.51753 10.5623 7.59832
448 1 1 0 1 -8.62818 14.9433 11.0157
449 1 1 0 1 -7.06552 18.3884 10.4413
450 1 1 0 1 -1.54875 14.7609 21.4467
451 1 1 0 1 -5.77867 14.6515 9.62447
452 1 1 0 1 -6.32183 16.9225 17.2456
453 1 1 0 1 -5.64874 18.326 18.2794
454 1 1 0 1 1.27297 24.0545 15.2229
455 1 1 0 1 -5.39333 7.45507 6.89064
456 1 1 0 1 -4.00444 13.2722 11.5825
457 1 1 0 1 -10.0119 24.618 13.6369
458 1 1 0 1 -8.64685 15.6698 19.0459
459 1 1 0 1 -6.58362 17.2833 18.3011
460 1 1 0 1 -0.841331 13.3236 19.0787
461 1 1 0 1 -0.287305 22.8191 10.6753
462 1 1 0 1 4.10666 22.6295 21.5862
463 1 1 0 1 -0.239979 20.7432 -7.23679
464 1 1 0 1 -1.78842 21.3893 7.34336
465 1 1 0 1 2.81808 24.3946 0.576452
466 1 1 0 1 1.12892 22.3035 3.95139
467 1 1 0 1 -7.425 18.2018 11.8937
468 1 1 0 1 -3.00049 21.9155 4.97591
469 1 1 0 1 -3.77483 13.3506 8.78628
470 1 1 0 1 -0.601789 22.154 6.032
471 1 1 0 1 -4.14689 10.5602 6.5569
472 1 1 0 1 1.34729 27.9553 10.946
473 1 1 0 1 -3.83763 17.9292 13.5053
474 1 1 0 1 0.432864 15.9123 13.3735
475 1 1 0 1 -2.89588 16.4384 13.2388
476 1 1 0 1 1.37959 22.2489 22.0022
477 1 1 0 1 -1.07694 20.1952 13.7829
478 1 1 0 1 -3.84426 20.691 14.6985
479 1 1 0 1 -2.7631 27.0614 15.2684
480 1 1 0 1 2.38168 20.5482 16.5447
481 1 1 0 1 -2.3321 18.5196 15.9213
482 1 1 0 1 -5.72768 28.9639 16.8817
483 1 1 0 1 -0.280669 20.071 28.5896
484 1 1 0 1 -1.65135 22.218 24.9798
485 1 1 0 1 -2.52084 -5.54678 3.27211
486 1 1 0 1 -2.11875 5.62998 -4.41503
487 1 1 0 1 -2.36916 6.05971 0.518115
488 1 1 0 1 -3.24272 -2.11034 2.0162
489 1 1 0 1 -3.22386 4.45178 2.98631
490 1 1 0 1 -6.99466 -2.51329 3.02084
491 1 1 0 1 -4.84664 4.07535 8.21458
492 1 1 0 1 -1.12533 -7.85396 10.1653
493 1 1 0 1 -0.891973 -1.67903 9.87518
494 1 1 0 1 -3.26761 -0.72154 3.6169
495 1 1 0 1 -4.96325 4.06011 15.409
496 1 1 0 1 -2.27419 7.05446 13.3067
497 1 1 0 1 -3.12145 -4.64291 11.6643
498 1 1 0 1 -0.946985 -0.343014 16.9874
499 1 1 0 1 -2.0324 0.385698 11.3656
500 1 1 0 1 -3.21749 -3.84147 18.454
501 1 1 0 1 -0.530934 -4.08525 10.042
502 1 1 0 1 1.5722 -8.49937 19.8047
503 1 1 0 1 -1.55229 8.08328 15.3951
504 1 1 0 1 -2.19187 -0.388081 13.2009
505 1 1 0 1 -5.43762 -2.85588 14.5179
506 1 1 0 1 -1.65297 3.64196 20.006
507 1 1 0 1 -3.64092 2.65133 -1.37799
508 1 1 0 1 -2.20521 3.34804 2.72727
509 1 1 0 1 -3.06121 5.37576 6.44259
510 1 1 0 1 -4.45471 -1.08121 0.791263
511 1 1 0 1 2.04466 3.39705 1.22288
512 1 1 0 1 -1.48606 7.73938 6.96492
513 1 1 0 1 -0.811834 -4.25735 6.85024
514 1 1 0 1 -3.15017 1.81446 4.28052
515 1 1 0 1 3.79581 6.67704 4.14334
516 1 1 0 1 -6.12364 0.520894 11.4937
517 1 1 0 1 -4.02442 -2.89615 9.97983
518 1 1 0 1 0.135079 2.8751 7.12457
519 1 1 0 1 0.275361 0.546334 13.7118
520 1 1 0 1 -0.763422 -2.57737 11.8412
521 1 1 0 1 -0.497368 3.45653 10.0593
522 1 1 0 1 -6.09305 5.7421 10.7467
523 1 1 0 1 0.963373 -1.22738 15.533
524 1 1 0 1 -1.25314 2.66001 15.5479
525 1 1 0 1 -6.16976 4.60588 25.0159
526 1 1 0 1 3.46555 -3.94247 24.7403
527 1 1 0 1 0.649998 5.08801 19.3281
528 1 1 0 1 1.59225 5.03657 25.157
529 1 1 0 1 10.7691 7.61054 6.2878
530 1 1 0 1 0.879544 -1.66858 -5.28311
531 1 1 0 1 -1.5391 7.68776 -4.3906
532 1 1 0 1 1.61668 -3.0253 0.258859
533 1 1 0 1 -5.30462 5.08173 -0.91044
534 1 1 0 1 -1.1613 0.0786663 3.81312
535 1 1 0 1 0.0556218 3.66613 1.27334
536 1 1 0 1 -1.67552 6.38573 3.0433
537 1 1 0 1 -2.73041 2.28751 6.61782
538 1 1 0 1 -5.41817 -3.35734 12.0382
539 1 1 0 1 -1.77772 4.95802 15.6915
540 1 1 0 1 -0.764201 5.20453 10.495
541 1 1 0 1 -4.90041 7.43352 13.7836
542 1 1 0 1 -5.6848 7.59551 12.9383
543 1 1 0 1 -8.6159 7.54499 14.1602
544 1 1 0 1 0.245232 4.8105 15.1025
545 1 1 0 1 -0.334544 2.7189 13.7764
546 1 1 0 1 -0.973978 -0.440121 14.6954
547 1 1 0 1 -0.724712 1.16364 19.0077
548 1 1 0 1 -1.6895 8.39656 27.8327
549 1 1 0 1 -1.16914 7.26068 20.605
550 1 1 0 1 -3.36658 6.9688 24.6236
551 1 1 0 1 -2.33077 9.12113 0.122748
552 1 1 0 1 -5.26494 7.8615 -1.00555
553 1 1 0 1 -2.89694 9.19829 2.23074
554 1 1 0 1 -0.0487142 3.5833 -1.82105
555 1 1 0 1 -0.247926 8.07421 -1.69605
556 1 1 0 1 -1.01953 2.20663 4.59432
557 1 1 0 1 0.380215 2.67248 5.04829
558 1 1 0 1 3.01084 3.9241 6.92474
559 1 1 0 1 -2.27193 0.89975 9.62151
560 1 1 0 1 -3.78055 -0.195562 2.75669
561 1 1 0 1 0.122719 1.69409 13.7481
562 1 1 0 1 1.62194 4.05474 14.5447
563 1 1 0 1 -3.41868 1.9645 14.2195
564 1 1 0 1 -5.00204 -2.95252 10.6907
565 1 1 0 1 5.05562 5.46617 15.3409
566 1 1 0 1 3.5173 7.23743 15.5424
567 1 1 0 1 -0.822334 6.05051 19.1231
568 1 1 0 1 2.94472 6.531 16.9623
569 1 1 0 1 1.35441 4.61925 18.7322
570 1 1 0 1 -5.9619 3.65749 23.1875
571 1 1 0 1 4.09058 6.51319 19.6673
572 1 1 0 1 0.693773 3.86701 20.9253
573 1 1 0 1 -1.84508 7.09956 -0.598089
574 1 1 0 1 -0.670374 6.66528 9.19698
575 1 1 0 1 -2.629 0.733973 -1.67481
576 1 1 0 1 -4.58246 5.00427 -0.0455028
577 1 1 0 1 -3.57587 3.09499 6.4141
578 1 1 0 1 -1.9917 11.2058 12.3091
579 1 1 0 1 -5.05333 2.21938 6.89892
580 1 1 0 1 -0.963052 0.71345 11.6844
581 1 1 0 1 -2.46925 9.82596 11.3531
582 1 1 0 1 -0.715855 2.2907 8.71346
583 1 1 0 1 -4.17768 4.41715 10.3017
584 1 1 0 1 -2.70701 11.5114 17.4142
585 1 1 0 1 -9.1506 2.65323 16.3695
586 1 1 0 1 1.43951 13.3753 16.8349
587 1 1 0 1 -4.85566 13.3169 12.9533
588 1 1 0 1 -5.1952 3.08113 18.3743
589 1 1 0 1 -6.25101 4.3057 20.0491
590 1 1 0 1 -4.18691 5.57728 17.9808
591 1 1 0 1 -3.92598 6.06422 13.9156
592 1 1 0 1 -0.763558 2.24831 22.7
593 1 1 0 1 -0.776934 6.63741 16.0757
594 1 1 0 1 -4.81515 -0.522034 19.1543
595 1 1 0 1 -0.185238 5.13905 -4.6362
596 1 1 0 1 0.941702 6.54289 3.85412
597 1 1 0 1 -8.15698 2.27078 6.86591
598 1 1 0 1 2.13173 5.13017 1.24087
599 1 1 0 1 2.4064 7.76132 2.29067
600 1 1 0 1 3.05272 9.8733 2.62412
601 1 1 0 1 -5.20427 8.08489 7.93061
602 1 1 0 1 1.83858 -1.89731 2.41566
603 1 1 0 1 2.8311 0.91061 12.3114
604 1 1 0 1 5.07365 4.2665 11.2994
605 1 1 0 1 1.47602 5.56521 9.91189
606 1 1 0 1 -7.48186 -2.28691 13.6084
607 1 1 0 1 -1.03436 7.39441 9.87893
608 1 1 0 1 0.353484 -0.693237 12.6021
609 1 1 0 1 4.28723 8.95649 12.558
610 1 1 0 1 1.70664 6.96584 12.671
611 1 1 0 1 -1.39769 3.52876 9.0816
612 1 1 0 1 2.63366 3.5313 19.5605
613 1 1 0 1 -1.53849 2.93376 16.6546
614 1 1 0 1 -4.68179 4.77145 25.9029
615 1 1 0 1 -10.3863 5.82314 22.2836
616 1 1 0 1 -3.57314 8.53069 18.0917
617 1 1 0 1 0.915636 2.50458 0.171662
618 1 1 0 1 -6.21939 8.44725 -0.742731
619 1 1 0 1 -1.77239 16.2895 1.41641
620 1 1 0 1 2.72698 7.39468 4.10208
621 1 1 0 1 -3.3996 5.72179 3.83912
622 1 1 0 1 -6.25215 3.08588 6.32427
623 1 1 0 1 -6.95953 5.45077 3.28601
624 1 1 0 1 -0.851045 1.13408 4.11107
625 1 1 0 1 -5.70627 6.35129 7.00758
626 1 1 0 1 0.669506 8.65195 14.3961
627 1 1 0 1 -4.84976 0.087141 14.7958
628 1 1 0 1 3.31389 1.87872 6.84804
629 1 1 0 1 2.4032 9.00051 13.722
630 1 1 0 1 3.03411 14.2989 11.7633
631 1 1 0 1 -1.20673 10.2394 15.0399
632 1 1 0 1 2.7671 5.05251 18.2313
633 1 1 0 1 -13.5219 8.8276 19.084
634 1 1 0 1 -3.67204 7.25718 20.3844
635 1 1 0 1 -1.03095 5.86836 17.0754
636 1 1 0 1 -3.2151 3.16351 17.8842
637 1 1 0 1 -3.47196 3.6453 19.3343
638 1 1 0 1 -4.20739 4.29508 21.0251
639 1 1 0 1 -3.56677 2.59043 7.33791
640 1 1 0 1 1.4921 8.91591 3.41422
641 1 1 0 1 3.67352 6.50755 1.32389
642 1 1 0 1 2.47693 9.13787 4.14247
643 1 1 0 1 -2.17887 12.1838 5.79587
644 1 1 0 1 -2.72939 6.21079 3.13628
645 1 1 0 1 -2.65642 6.20988 5.66465
646 1 1 0 1 3.75605 2.8139 6.3914
647 1 1 0 1 -1.76145 8.0255 -0.954889
648 1 1 0 1 -4.68372 8.03453 9.29717
649 1 1 0 1 -4.23981 10.2181 8.60501
650 1 1 0 1 2.33589 10.3425 11.0827
651 1 1 0 1 2.34293 8.58961 8.41124
652 1 1 0 1 -2.57433 16.3601 17.3617
653 1 1 0 1 -6.09114 17.023 13.5433
654 1 1 0 1 2.11401 9.90674 21.5371
655 1 1 0 1 -4.10821 8.6588 11.3771
656 1 1 0 1 -4.58019 6.42952 16.1337
657 1 1 0 1 2.64979 7.5761 16.3856
658 1 1 0 1 5.72072 8.80479 23.4225
659 1 1 0 1 -4.33102 7.1871 14.813
660 1 1 0 1 0.984794 8.4994 18.5807
661 1 1 0 1 -2.94035 9.963 1.55231
662 1 1 0 1 1.72292 11.4313 -1.32462
663 1 1 0 1 -5.33625 5.38261 3.12291
664 1 1 0 1 -3.79696 12.5723 3.95783
665 1 1 0 1 -6.64381 4.66944 5.95184
666 1 1 0 1 4.71166 10.7814 14.7421
667 1 1 0 1 -5.53408 5.8193 1.96859
668 1 1 0 1 -8.0429 5.19996 2.72931
669 1 1 0 1 0.299798 7.14674 4.45856
670 1 1 0 1 -2.9752 8.14465 6.61651
671 1 1 0 1 -0.0444569 1.80607 4.53935
672 1 1 0 1 -2.33839 16.45 14.1529
673 1 1 0 1 -4.68659 14.8398 15.3633
674 1 1 0 1 -0.732305 11.7556 17.2549
675 1 1 0 1 -1.80663 11.9834 18.5543
676 1 1 0 1 -6.75811 6.58238 17.0767
677 1 1 0 1 -3.56785 11.4802 21.1682
678 1 1 0 1 3.35267 5.72768 19.8419
679 1 1 0 1 -7.21962 6.18721 17.9511
680 1 1 0 1 -2.72521 8.56756 13.2778
681 1 1 0 1 -2.09927 10.0449 18.5132
682 1 1 0 1 1.74081 9.66225 24.6681
683 1 1 0 1 -3.48004 11.5469 4.09511
684 1 1 0 1 0.297783 4.91411 -1.51767
685 1 1 0 1 -2.27657 17.0763 12.2749
686 1 1 0 1 1.09155 6.5747 6.81422
687 1 1 0 1 1.62349 16.9879 2.32599
688 1 1 0 1 -2.58993 14.006 5.12596
689 1 1 0 1 -4.06093 2.14552 6.28024
690 1 1 0 1 1.38811 8.34467 12.5836
691 1 1 0 1 0.281303 4.66078 6.5811
692 1 1 0 1 1.35697 8.59441 11.3259
693 1 1 0 1 -1.44395 8.21339 18.7511
694 1 1 0 1 -4.64995 15.5344 16.1355
695 1 1 0 1 -5.38924 9.36125 18.3985
696 1 1 0 1 -1.50048 5.02355 19.3774
697 1 1 0 1 -2.94902 11.0935 14.916
698 1 1 0 1 -8.43935 9.39306 21.4783
699 1 1 0 1 -0.326673 7.91534 21.3989
700 1 1 0 1 -0.064265 14.4158 11.7728
701 1 1 0 1 0.556793 10.5965 18.0956
702 1 1 0 1 -3.86436 6.30935 17.0003
703 1 1 0 1 -0.816066 12.1282 18.3838
704 1 1 0 1 1.25272 17.854 19.8057
705 1 1 0 1 -0.695544 10.9746 3.66859
706 1 1 0 1 -2.04833 6.86432 0.969835
707 1 1 0 1 -1.82787 23.0327 0.748358
708 1 1 0 1 0.905443 7.46576 -1.66792
709 1 1 0 1 -7.36617 9.5865 3.3456
710 1 1 0 1 -2.5542 13.5232 6.17261
711 1 1 0 1 -5.58159 10.3164 7.1884
712 1 1 0 1 -6.09746 11.6871 12.2499
713 1 1 0 1 -6.17377 10.8578 8.78576
714 1 1 0 1 0.93746 10.0351 5.04724
715 1 1 0 1 -2.05117 13.3503 14.5762
716 1 1 0 1 -4.80566 12.5413 17.1151
717 1 1 0 1 -4.76928 13.8375 14.1278
718 1 1 0 1 -0.664858 12.8568 14.6792
719 1 1 0 1 -4.35248 7.54306 17.6647
720 1 1 0 1 0.658133 12.0309 20.1337
721 1 1 0 1 -7.63168 11.2826 12.8836
722 1 1 0 1 4.10495 15.4048 26.4382
723 1 1 0 1 -0.983707 10.7818 17.0624
724 1 1 0 1 -2.28237 15.1214 22.5877
725 1 1 0 1 0.669866 15.4666 24.5452
726 1 1 0 1 -2.81853 16.4475 26.3627
727 1 1 0 1 1.00042 12.9273 -0.242274
728 1 1 0 1 -3.30507 10.0912 -1.76168
729 1 1 0 1 -5.65876 8.2488 -1.98414
730 1 1 0 1 -1.28257 17.1663 3.32452
731 1 1 0 1 1.13297 14.1452 5.9335
732 1 1 0 1 4.44536 10.9854 3.42133
733 1 1 0 1 -3.53462 10.4683 3.43705
734 1 1 0 1 0.805108 4.73952 7.81721
735 1 1 0 1 -2.34613 17.0006 5.05409
736 1 1 0 1 -6.56741 13.797 2.23398
737 1 1 0 1 -0.602756 9.20791 13.5308
738 1 1 0 1 9.27687 14.7515 8.51003
739 1 1 0 1 -4.53683 8.22853 14.6808
740 1 1 0 1 -3.78404 11.6503 22.124
741 1 1 0 1 -2.7883 8.17465 17.471
742 1 1 0 1 2.47462 7.5648 19.661
743 1 1 0 1 -0.869429 11.6533 21.8009
744 1 1 0 1 2.2837 12.2713 28.1137
745 1 1 0 1 -1.22299 10.2556 22.1325
746 1 1 0 1 -2.33098 8.86694 18.587
747 1 1 0 1 -0.110654 13.6038 25.0224
748 1 1 0 1 0.619958 15.1179 25.9543
749 1 1 0 1 -0.571995 13.3208 6.32665
750 1 1 0 1 -0.337106 9.82562 5.89926
751 1 1 0 1 -8.46291 14.1029 5.68906
752 1 1 0 1 -0.417072 18.0596 4.05626
753 1 1 0 1 0.243777 11.8481 5.28676
754 1 1 0 1 0.859582 11.2547 4.82895
755 1 1 0 1 2.77395 19.8409 3.08136
756 1 1 0 1 -8.05402 17.9533 3.67861
757 1 1 0 1 -2.65864 14.5135 16.5284
758 1 1 0 1 -4.65016 18.3126 14.0524
759 1 1 0 1 -7.66048 8.15326 6.70691
760 1 1 0 1 -0.341652 7.06736 13.5897
761 1 1 0 1 -2.34728 17.3889 13.2955
762 1 1 0 1 -3.1078 14.3249 12.1156
763 1 1 0 1 -2.99893 14.4325 11.149
764 1 1 0 1 -4.79154 17.2128 15.817
765 1 1 0 1 -0.862424 14.3832 20.6003
766 1 1 0 1 -1.64594 12.99 17.6289
767 1 1 0 1 -1.99894 14.7004 19.435
768 1 1 0 1 -2.85822 13.2244 22.6568
769 1 1 0 1 3.49246 9.96976 21.1851
770 1 1 0 1 -2.60892 13.6518 24.974
771 1 1 0 1 -2.74412 15.3663 2.99792
772 1 1 0 1 -1.8042 12.9676 11.9544
773 1 1 0 1 -2.54021 12.2257 4.06525
774 1 1 0 1 -1.2897 14.3013 11.3526
775 1 1 0 1 -7.74871 13.5957 -0.85779
776 1 1 0 1 -0.290168 11.0741 5.8546
777 1 1 0 1 -4.3234 17.3692 7.5744
778 1 1 0 1 -2.42598 12.619 8.49396
779 1 1 0 1 -1.45285 15.9063 14.7182
780 1 1 0 1 -5.74355 17.2629 10.2303
781 1 1 0 1 2.86249 12.0414 19.2615
782 1 1 0 1 -4.41252 16.5756 16.8326
783 1 1 0 1 -3.11315 17.8713 14.4904
784 1 1 0 1 -0.0534847 17.7215 22.4177
785 1 1 0 1 -3.43301 20.6403 15.8615
786 1 1 0 1 -3.17884 13.2895 19.784
787 1 1 0 1 4.40172 14.8718 19.7597
788 1 1 0 1 -9.60703 18.5885 14.7996
789 1 1 0 1 -4.43227 18.4519 18.5727
790 1 1 0 1 -0.975513 11.6552 23.6949
791 1 1 0 1 1.82627 12.741 20.6543
792 1 1 0 1 0.200783 9.50861 23.0303
793 1 1 0 1 -8.66419 12.7952 3.42131
794 1 1 0 1 2.73948 16.5191 3.19893
795 1 1 0 1 0.114448 17.7282 -0.697471
796 1 1 0 1 -1.59456 17.857 7.59012
797 1 1 0 1 -2.43927 19.2318 2.41202
798 1 1 0 1 -2.34882 18.1929 2.0453
799 1 1 0 1 -4.49004 15.1828 8.30486
800 1 1 0 1 3.12356 7.96069 3.32027
801 1 1 0 1 5.92064 15.0302 10.8882
802 1 1 0 1 -6.52728 17.9163 11.4139
803 1 1 0 1 -2.22359 17.8306 15.0065
804 1 1 0 1 0.275305 13.3073 13.9653
805 1 1 0 1 -7.1015 16.0022 15.9688
806 1 1 0 1 0.932662 8.72798 8.80231
807 1 1 0 1 -3.31033 18.451 16.2029
808 1 1 0 1 0.429537 20.4383 11.9323
809 1 1 0 1 -5.50731 16.8202 16.6692