ITEM: TIMESTEP
25000
ITEM: NUMBER OF ATOMS
6752
ITEM: BOX BOUNDS pp pp pp
0.0000000000000000e+00 2.2000000000000000e+01
0.0000000000000000e+00 2.2000000000000000e+01
0.0000000000000000e+00 2.2000000000000000e+01
ITEM: ATOMS id mol type q mass xu yu zu
1 1 1 0 1 -2.16902 -10.8101 5.69887
2 1 1 0 1 -1.71132 7.30278 -2.50768
3 1 1 0 1 -2.44932 -0.262328 2.27269
4 1 1 0 1 -9.59203 0.0992307 5.06645
5 1 1 0 1 1.93118 10.3894 0.0700777
6 1 1 0 1 -12.2171 -5.28704 8.10819
7 1 1 0 1 5.35717 9.29484 8.61258
8 1 1 0 1 4.94757 -4.40721 14.5603
9 1 1 0 1 -0.0583715 1.81873 9.67035
10 1 1 0 1 -7.30022 -2.33853 11.6896
11 1 1 0 1 1.70553 -2.36942 3.59264
12 1 1 0 1 -6.13904 -4.37959 16.4787
13 1 1 0 1 5.40506 3.9281 11.9096
14 1 1 0 1 -1.74826 12.5248 12.3424
15 1 1 0 1 -7.26364 0.656333 9.00721
16 1 1 0 1 -3.78552 -7.52856 13.3457
17 1 1 0 1 0.438041 -1.60156 18.5033
18 1 1 0 1 -9.11506 -7.47964 20.1212
19 1 1 0 1 -4.28325 5.2379 13.9158
20 1 1 0 1 -8.5614 3.7516 20.0724
21 1 1 0 1 -7.25333 4.33559 14.5002
22 1 1 0 1 -0.0311262 9.79698 18.5347
23 1 1 0 1 -10.5812 -0.761228 8.06874
24 1 1 0 1 -7.65504 5.9501 0.000855996
25 1 1 0 1 -1.65864 3.36019 -6.97021
26 1 1 0 1 2.51406 -4.92325 6.30002
27 1 1 0 1 -6.49063 -1.55236 12.4691
28 1 1 0 1 -0.154801 5.16117 0.448577
29 1 1 0 1 -3.52357 -2.05222 15.2155
30 1 1 0 1 -2.98655 1.87148 16.8359
31 1 1 0 1 -4.82504 8.91013 10.4722
32 1 1 0 1 -2.84872 -4.4372 5.15552
33 1 1 0 1 -7.4363 -1.88533 10.695
34 1 1 0 1 -2.66648 3.51783 17.4425
35 1 1 0 1 1.11683 4.23674 13.4967
36 1 1 0 1 5.54891 2.55723 6.95825
37 1 1 0 1 -3.36578 4.96248 14.609
38 1 1 0 1 1.93204 0.570155 24.5564
39 1 1 0 1 -0.754751 7.63402 11.0328
40 1 1 0 1 -3.41562 4.23793 16.2938
41 1 1 0 1 -6.05739 -1.76652 15.4205
42 1 1 0 1 -3.12484 2.95835 27.5087
43 1 1 0 1 -0.0722569 7.6237 16.9314
44 1 1 0 1 -4.22774 8.70793 16.6186
45 1 1 0 1 -10.881 4.54016 3.5194
46 1 1 0 1 -3.79863 4.73544 9.37435
47 1 1 0 1 -2.20355 -0.897238 0.805756
48 1 1 0 1 -6.84139 11.5075 1.57103
49 1 1 0 1 -6.00179 4.7442 0.55321
50 1 1 0 1 -4.80271 3.77662 -0.706617
51 1 1 0 1 -0.257914 2.24599 0.748128
52 1 1 0 1 -1.3158 3.45386 12.9347
53 1 1 0 1 -4.2367 -1.39569 2.99615
54 1 1 0 1 -6.45379 -0.203888 19.1206
55 1 1 0 1 -4.13269 2.29598 11.9654
56 1 1 0 1 -0.376267 1.95803 7.67363
57 1 1 0 1 -5.21324 12.0717 19.7224
58 1 1 0 1 -5.23639 10.6755 13.1092
59 1 1 0 1 -6.3194 5.99767 10.2434
60 1 1 0 1 0.944859 3.24387 22.554
61 1 1 0 1 -4.4573 8.44598 13.7547
62 1 1 0 1 2.37656 2.92651 23.8616
63 1 1 0 1 -0.0723782 8.00664 4.49702
64 1 1 0 1 -0.789801 -0.981004 11.9383
65 1 1 0 1 -11.7922 -0.609376 16.397
66 1 1 0 1 -3.84886 6.77271 25.3565
67 1 1 0 1 -3.79113 -4.60714 -4.06115
68 1 1 0 1 -6.38575 3.53788 -8.91708
69 1 1 0 1 -1.89266 6.07146 0.524777
70 1 1 0 1 -0.0418727 13.074 2.77005
71 1 1 0 1 1.42009 0.257426 5.52638
72 1 1 0 1 -14.3464 5.90356 0.671419
73 1 1 0 1 0.708297 1.17513 5.86644
74 1 1 0 1 -1.94836 2.30815 16.0812
75 1 1 0 1 -1.05219 1.10784 7.24993
76 1 1 0 1 -1.41089 -1.80129 8.44856
77 1 1 0 1 -7.32641 -2.23224 8.25084
78 1 1 0 1 -1.98097 7.07852 11.2994
79 1 1 0 1 -2.00128 1.80803 13.3943
80 1 1 0 1 0.68863 -3.35552 13.0342
81 1 1 0 1 -1.88704 9.62488 18.8444
82 1 1 0 1 -2.47924 -3.90807 11.3972
83 1 1 0 1 -8.05418 1.46562 18.4087
84 1 1 0 1 4.66372 5.74901 15.7453
85 1 1 0 1 -4.4603 -2.19962 25.5549
86 1 1 0 1 -3.89087 -1.4088 17.585
87 1 1 0 1 1.32758 6.85949 23.6576
88 1 1 0 1 -2.86486 6.89913 20.8888
89 1 1 0 1 -4.29913 10.9454 0.659563
90 1 1 0 1 -0.0479116 12.4004 10.9105
91 1 1 0 1 -2.41578 -2.13382 7.9907
92 1 1 0 1 -0.0622829 8.90988 3.59722
93 1 1 0 1 0.906525 9.42188 3.30489
94 1 1 0 1 -4.23627 -4.69732 2.81538
95 1 1 0 1 -4.47575 6.05033 9.0324
96 1 1 0 1 2.16402 3.78094 4.26682
97 1 1 0 1 -5.5569 10.5522 11.1537
98 1 1 0 1 0.67123 5.85493 5.90461
99 1 1 0 1 -3.47563 6.93773 4.49681
100 1 1 0 1 1.19704 1.05508 1.77865
101 1 1 0 1 -3.95586 2.50249 7.45921
102 1 1 0 1 -4.69468 4.28144 9.55927
103 1 1 0 1 -5.186 7.77365 11.8674
104 1 1 0 1 -2.80878 14.4917 12.2636
105 1 1 0 1 -2.06724 4.39091 3.5542
106 1 1 0 1 0.487472 5.9828 21.1672
107 1 1 0 1 -7.17313 7.40203 14.7555
108 1 1 0 1 0.418578 7.1714 12.5032
109 1 1 0 1 -8.18427 1.8872 24.3298
110 1 1 0 1 -7.64321 6.52858 23.1417
111 1 1 0 1 -5.63558 2.93485 3.76125
112 1 1 0 1 -2.23963 8.80739 -4.37222
113 1 1 0 1 -1.76472 5.77073 17.3929
114 1 1 0 1 1.46394 8.10017 4.76903
115 1 1 0 1 -6.79944 10.413 1.30976
116 1 1 0 1 -0.646606 13.0381 8.6617
117 1 1 0 1 -5.36471 9.60503 3.20892
118 1 1 0 1 -3.56555 3.37779 4.3572
119 1 1 0 1 -4.39214 8.4475 11.4871
120 1 1 0 1 -2.39372 2.71391 8.84779
121 1 1 0 1 -0.325993 1.89861 3.81886
122 1 1 0 1 2.24041 5.86707 5.94764
123 1 1 0 1 -4.95041 4.26131 12.2552
124 1 1 0 1 -5.88308 10.3642 14.6732
125 1 1 0 1 -8.97122 8.78634 8.66123
126 1 1 0 1 -5.66987 6.31329 22.6246
127 1 1 0 1 -0.882607 9.45592 15.4719
128 1 1 0 1 -10.5405 8.1481 11.9284
129 1 1 0 1 -2.08024 6.35863 24.6175
130 1 1 0 1 -2.99447 7.98535 13.8409
131 1 1 0 1 -11.8611 -0.0366348 7.17628
132 1 1 0 1 -5.82274 4.81261 28.7035
133 1 1 0 1 1.44726 6.71213 3.42357
134 1 1 0 1 -7.89642 6.9359 10.2162
135 1 1 0 1 -6.17244 0.186162 2.80497
136 1 1 0 1 -1.03232 13.109 1.56417
137 1 1 0 1 -9.89014 4.27142 8.98635
138 1 1 0 1 -9.99019 8.38737 13.7217
139 1 1 0 1 2.81395 8.04217 3.88214
140 1 1 0 1 -8.66892 9.90731 2.46559
141 1 1 0 1 2.26925 6.40493 -0.0833161
142 1 1 0 1 -5.89305 4.47662 9.00729
143 1 1 0 1 -2.05051 1.93094 10.0111
144 1 1 0 1 2.42278 2.10601 9.06412
145 1 1 0 1 -10.8375 6.58725 19.3935
146 1 1 0 1 -8.29617 10.9567 21.8662
147 1 1 0 1 -1.50006 21.5443 17.3535
148 1 1 0 1 -7.15317 14.0066 12.7697
149 1 1 0 1 -10.6025 2.55925 18.7162
150 1 1 0 1 -6.70362 8.67761 5.56977
151 1 1 0 1 -4.98482 0.819118 22.9029
152 1 1 0 1 -5.24642 0.753906 17.636
153 1 1 0 1 -3.94823 10.8005 20.5919
154 1 1 0 1 -4.78092 4.77655 26.9121
155 1 1 0 1 -4.12925 5.91319 -3.7235
156 1 1 0 1 -0.103933 6.329 -1.94233
157 1 1 0 1 -4.50556 10.5403 5.26216
158 1 1 0 1 -4.1061 12.874 2.16003
159 1 1 0 1 -3.66113 7.03808 0.842957
160 1 1 0 1 -5.93794 4.02679 5.90444
161 1 1 0 1 -1.79717 12.082 6.04009
162 1 1 0 1 -4.1874 8.08072 12.702
163 1 1 0 1 1.67194 10.3152 5.59691
164 1 1 0 1 -10.1491 6.38931 10.9885
165 1 1 0 1 -0.68546 1.23303 14.7055
166 1 1 0 1 -2.91366 12.686 21.7194
167 1 1 0 1 -5.96803 15.5461 15.9594
168 1 1 0 1 -9.46294 3.67405 21.6224
169 1 1 0 1 -9.07791 14.7136 14.2858
170 1 1 0 1 3.40427 10.1398 21.3936
171 1 1 0 1 -2.83258 12.5588 26.1351
172 1 1 0 1 -1.0199 9.50625 18.2553
173 1 1 0 1 -0.990114 3.77807 17.1018
174 1 1 0 1 6.0935 5.41527 21.5335
175 1 1 0 1 -5.59194 7.53844 19.2327
176 1 1 0 1 0.715994 4.53152 26.7069
177 1 1 0 1 -6.16758 5.32831 1.69402
178 1 1 0 1 0.812078 17.0636 10.3566
179 1 1 0 1 -9.16795 13.4284 1.80983
180 1 1 0 1 -2.10365 17.4781 -0.0832371
181 1 1 0 1 -6.41907 15.5812 2.04821
182 1 1 0 1 -7.53856 14.2776 6.73122
183 1 1 0 1 -5.71619 14.071 5.82539
184 1 1 0 1 -5.17656 9.15532 9.25041
185 1 1 0 1 -6.91299 1.38072 7.51641
186 1 1 0 1 -13.5786 15.5781 9.70428
187 1 1 0 1 -7.28261 15.8171 12.4859
188 1 1 0 1 -1.99753 0.712992 9.86291
189 1 1 0 1 -3.2582 13.7119 18.7438
190 1 1 0 1 -7.41066 5.62771 14.283
191 1 1 0 1 -4.64067 10.0348 22.3631
192 1 1 0 1 -3.65517 8.47883 14.6681
193 1 1 0 1 -4.79663 4.56219 19.8269
194 1 1 0 1 7.18236 10.381 19.079
195 1 1 0 1 -6.02274 4.8633 13.0615
196 1 1 0 1 1.52983 7.94141 20.695
197 1 1 0 1 -3.39933 4.44093 19.0557
198 1 1 0 1 7.2741 7.80249 26.7818
199 1 1 0 1 -0.857709 12.3421 2.33162
200 1 1 0 1 4.76649 8.53996 7.59144
201 1 1 0 1 -4.33078 16.4434 -1.90033
202 1 1 0 1 -1.34889 2.39582 5.33266
203 1 1 0 1 -7.27656 9.8377 5.98483
204 1 1 0 1 -1.57613 6.24894 14.0686
205 1 1 0 1 2.37877 6.70056 2.04567
206 1 1 0 1 0.375365 10.3843 6.73282
207 1 1 0 1 -2.19176 8.49868 0.189763
208 1 1 0 1 -1.94306 3.06481 10.8957
209 1 1 0 1 -3.33757 2.04811 1.88294
210 1 1 0 1 -6.65719 7.62962 6.53811
211 1 1 0 1 -2.65745 8.35799 7.21624
212 1 1 0 1 -11.6111 10.8479 14.4519
213 1 1 0 1 -3.3591 11.2666 25.4846
214 1 1 0 1 -15.2051 20.9673 19.4312
215 1 1 0 1 -8.00692 13.7988 14.8222
216 1 1 0 1 -7.30972 12.4915 19.7119
217 1 1 0 1 -10.5218 14.5595 27.2001
218 1 1 0 1 1.99548 7.80763 23.9355
219 1 1 0 1 3.65424 11.0318 25.1277
220 1 1 0 1 6.73361 15.5124 23.095
221 1 1 0 1 10.2327 6.87459 -2.22304
222 1 1 0 1 -6.3083 15.1935 -0.484175
223 1 1 0 1 -8.92022 10.5397 0.666891
224 1 1 0 1 -5.58618 10.0206 -5.45391
225 1 1 0 1 -7.88902 17.7425 3.28304
226 1 1 0 1 -14.0436 10.6963 8.85607
227 1 1 0 1 -10.8095 14.4651 8.49778
228 1 1 0 1 -10.2924 18.0531 0.410387
229 1 1 0 1 3.95217 10.8024 11.3914
230 1 1 0 1 -2.61241 15.1098 10.2588
231 1 1 0 1 -5.84101 9.32239 13.2671
232 1 1 0 1 0.273539 1.47513 11.8919
233 1 1 0 1 -0.612602 13.3496 15.5064
234 1 1 0 1 -11.5331 12.0328 12.7736
235 1 1 0 1 -4.75407 13.4931 16.3656
236 1 1 0 1 -7.82721 10.4498 12.2266
237 1 1 0 1 -11.123 16.066 16.4443
238 1 1 0 1 -4.74495 10.4415 15.7313
239 1 1 0 1 -3.14998 9.5566 17.2331
240 1 1 0 1 -5.21793 12.4431 11.4702
241 1 1 0 1 -4.21572 7.19168 18.0083
242 1 1 0 1 -1.36007 1.8749 21.9248
243 1 1 0 1 -4.99418 11.7311 -1.30368
244 1 1 0 1 -3.81937 8.90918 -3.14447
245 1 1 0 1 -5.2481 16.3537 2.07909
246 1 1 0 1 -0.898256 10.9387 2.29042
247 1 1 0 1 -6.34479 12.5196 7.88221
248 1 1 0 1 -0.431614 -3.99039 6.99805
249 1 1 0 1 -9.54656 12.0286 6.872
250 1 1 0 1 -1.13138 6.36081 3.61697
251 1 1 0 1 -6.52386 7.71456 4.63592
252 1 1 0 1 -0.890151 2.86285 6.09478
253 1 1 0 1 0.273329 -0.92845 19.3606
254 1 1 0 1 -1.15619 11.7043 17.314
255 1 1 0 1 -8.50009 3.0467 9.50972
256 1 1 0 1 -9.21875 18.2059 12.6971
257 1 1 0 1 2.92577 17.0036 19.7504
258 1 1 0 1 2.44905 11.8044 16.8047
259 1 1 0 1 -6.75378 12.0703 21.7212
260 1 1 0 1 -3.14241 15.0437 17.107
261 1 1 0 1 -2.44227 7.59753 17.9689
262 1 1 0 1 -5.40731 8.84517 19.6582
263 1 1 0 1 3.13429 14.2622 21.1404
264 1 1 0 1 -1.22454 14.9751 23.5354
265 1 1 0 1 -5.07697 11.8516 0.720295
266 1 1 0 1 7.144 20.0972 3.94367
267 1 1 0 1 0.284956 15.2453 9.06053
268 1 1 0 1 -2.53564 6.57811 -2.53328
269 1 1 0 1 -0.30832 11.4159 11.2283
270 1 1 0 1 -1.94803 15.4752 -1.17786
271 1 1 0 1 -6.23313 6.59261 9.33826
272 1 1 0 1 -7.1341 8.85856 16.0831
273 1 1 0 1 -0.921323 13.0838 6.43653
274 1 1 0 1 -13.4042 7.50645 8.74354
275 1 1 0 1 -6.95026 2.01393 11.575
276 1 1 0 1 -0.154 14.0418 11.0268
277 1 1 0 1 -5.27055 8.28825 13.1539
278 1 1 0 1 -0.159247 13.2352 18.4321
279 1 1 0 1 -3.46477 17.8062 11.894
280 1 1 0 1 -6.98608 14.6469 9.10267
281 1 1 0 1 0.191115 11.8421 27.479
282 1 1 0 1 -3.55134 13.9864 11.5788
283 1 1 0 1 -3.25534 12.5986 15.0964
284 1 1 0 1 -6.72513 15.1297 14.8933
285 1 1 0 1 -7.62119 2.49979 16.9917
286 1 1 0 1 -2.47505 8.92156 20.9918
287 1 1 0 1 -8.54458 23.4882 6.21674
288 1 1 0 1 -4.27515 14.8948 -0.848308
289 1 1 0 1 -8.1571 3.54341 5.54899
290 1 1 0 1 -3.8575 10.1811 7.14333
291 1 1 0 1 -7.20715 0.329369 10.2327
292 1 1 0 1 -7.0665 13.1085 10.99
293 1 1 0 1 -0.600174 8.97586 7.06414
294 1 1 0 1 -0.539056 14.6642 8.60798
295 1 1 0 1 -4.86386 7.08486 9.38703
296 1 1 0 1 -0.200228 11.6178 15.095
297 1 1 0 1 -7.93302 10.7572 6.64292
298 1 1 0 1 -8.86865 2.38867 19.1068
299 1 1 0 1 3.21825 18.3404 12.3191
300 1 1 0 1 2.07824 20.3119 20.1085
301 1 1 0 1 -1.635 16.1166 18.0868
302 1 1 0 1 -3.7614 14.6102 16.126
303 1 1 0 1 -11.4606 16.6451 9.2066
304 1 1 0 1 -0.00536785 8.26831 11.9411
305 1 1 0 1 5.58415 12.076 21.3293
306 1 1 0 1 -1.8778 13.3955 21.4585
307 1 1 0 1 2.1169 15.8769 21.2056
308 1 1 0 1 3.37408 29.5185 26.5852
309 1 1 0 1 -0.412659 14.164 4.83571
310 1 1 0 1 3.0151 14.1392 7.95277
311 1 1 0 1 -12.7879 13.7974 -1.93132
312 1 1 0 1 -8.25117 6.61488 4.70514
313 1 1 0 1 -11.1418 14.4687 2.36661
314 1 1 0 1 -1.4356 10.5991 -0.173235
315 1 1 0 1 2.61498 10.3268 6.33104
316 1 1 0 1 -10.1192 20.2226 6.53229
317 1 1 0 1 -5.80179 13.5286 11.1906
318 1 1 0 1 -3.54083 17.0125 10.414
319 1 1 0 1 -2.72969 9.80742 10.2503
320 1 1 0 1 4.43307 17.9245 7.11248
321 1 1 0 1 -4.67974 13.7845 13.0722
322 1 1 0 1 -2.2382 11.7631 19.1126
323 1 1 0 1 -3.87759 15.079 7.41077
324 1 1 0 1 -1.37099 11.3652 4.76975
325 1 1 0 1 0.448119 11.411 8.80659
326 1 1 0 1 -2.27604 15.4136 16.2511
327 1 1 0 1 -9.98559 12.5821 18.622
328 1 1 0 1 0.772005 17.4081 21.6651
329 1 1 0 1 0.323686 12.9945 22.5655
330 1 1 0 1 7.87404 17.4168 23.0834
331 1 1 0 1 -6.43433 12.7565 10.1409
332 1 1 0 1 -3.32561 20.0777 3.67294
333 1 1 0 1 0.169888 7.30143 5.24611
334 1 1 0 1 -4.42012 15.2123 2.46148
335 1 1 0 1 0.783911 13.1793 11.1881
336 1 1 0 1 -7.8796 15.2848 2.2765
337 1 1 0 1 -4.18589 13.5105 4.24402
338 1 1 0 1 -2.85127 10.7384 6.88078
339 1 1 0 1 -11.7789 13.4934 6.35846
340 1 1 0 1 -4.55153 9.67281 11.1989
341 1 1 0 1 -3.49408 8.80962 4.29942
342 1 1 0 1 -2.97422 16.3998 9.21585
343 1 1 0 1 0.457435 9.15903 7.05427
344 1 1 0 1 -8.24566 8.73382 11.7684
345 1 1 0 1 -6.41268 18.1893 14.7937
346 1 1 0 1 -0.874321 14.9915 20.5132
347 1 1 0 1 -0.717482 20.8946 17.7558
348 1 1 0 1 -4.66187 12.3686 18.4531
349 1 1 0 1 0.144329 20.6435 16.585
350 1 1 0 1 -2.68808 16.8142 15.2252
351 1 1 0 1 -9.32441 21.3092 20.239
352 1 1 0 1 -0.274893 16.5822 28.603
353 1 1 0 1 -10.2827 18.9315 -2.01346
354 1 1 0 1 1.29431 17.2598 3.0076
355 1 1 0 1 -6.58149 9.48077 4.94176
356 1 1 0 1 -7.47976 11.2072 4.58083
357 1 1 0 1 -0.698273 15.2921 0.691088
358 1 1 0 1 -4.05425 14.4542 6.20495
359 1 1 0 1 -12.1614 11.9537 13.9116
360 1 1 0 1 1.0131 11.9332 4.50858
361 1 1 0 1 -0.0192696 16.6565 9.68361
362 1 1 0 1 -0.949531 12.5715 11.4429
363 1 1 0 1 2.02135 12.8325 10.3964
364 1 1 0 1 3.2815 9.22556 8.67335
365 1 1 0 1 -2.15985 2.79275 6.31901
366 1 1 0 1 -5.44694 15.215 10.4043
367 1 1 0 1 0.616961 10.3261 13.736
368 1 1 0 1 -2.6195 20.1365 16.2412
369 1 1 0 1 -2.55669 14.3098 11.1489
370 1 1 0 1 -3.85437 5.59835 6.62277
371 1 1 0 1 -8.80181 18.245 25.0414
372 1 1 0 1 -4.48808 17.2653 20.9425
373 1 1 0 1 -4.42297 13.0177 15.1619
374 1 1 0 1 -2.58645 13.9025 29.378
375 1 1 0 1 -8.22323 4.06129 9.74107
376 1 1 0 1 -5.16866 16.4941 -1.24686
377 1 1 0 1 -10.767 10.2546 1.6418
378 1 1 0 1 -8.69524 15.1564 6.79348
379 1 1 0 1 -0.237619 14.5675 -5.23964
380 1 1 0 1 -3.36509 13.2148 3.03796
381 1 1 0 1 -8.11794 16.1075 8.17799
382 1 1 0 1 -15.1751 16.516 14.9933
383 1 1 0 1 -2.97006 19.0564 10.9082
384 1 1 0 1 1.49516 10.7627 13.9058
385 1 1 0 1 -5.52827 16.6349 9.16621
386 1 1 0 1 -4.43548 12.1649 10.7827
387 1 1 0 1 -5.04349 14.0993 18.251
388 1 1 0 1 -4.42773 17.1483 14.725
389 1 1 0 1 -4.13467 20.1253 18.5569
390 1 1 0 1 -1.28956 14.9875 18.4962
391 1 1 0 1 -5.30427 23.4734 20.3657
392 1 1 0 1 -8.07837 19.5833 6.66872
393 1 1 0 1 -5.04057 11.2828 12.2462
394 1 1 0 1 -3.32545 17.8599 22.9697
395 1 1 0 1 -12.9526 13.0634 13.3952
396 1 1 0 1 -0.474892 9.71369 23.4457
397 1 1 0 1 -3.51162 17.9884 -0.168041
398 1 1 0 1 -2.83002 27.0487 1.28384
399 1 1 0 1 -3.5678 14.6364 1.9919
400 1 1 0 1 -6.88427 13.3782 4.58477
401 1 1 0 1 -2.47874 11.0934 14.7594
402 1 1 0 1 -6.00393 11.9274 12.239
403 1 1 0 1 4.54435 15.8355 11.6086
404 1 1 0 1 -3.74317 26.9767 3.21095
405 1 1 0 1 -11.8702 14.7383 9.89149
406 1 1 0 1 -7.50007 19.1001 5.79781
407 1 1 0 1 -3.18326 16.1179 4.33088
408 1 1 0 1 -9.62823 18.7474 11.2509
409 1 1 0 1 -7.14558 10.2838 14.4
410 1 1 0 1 -7.20177 4.392 9.69455
411 1 1 0 1 7.04967 19.3676 7.96028
412 1 1 0 1 -10.9158 13.7242 3.07656
413 1 1 0 1 -9.27413 14.2633 17.8
414 1 1 0 1 -5.43829 9.89424 20.0812
415 1 1 0 1 0.240066 15.2543 26.8956
416 1 1 0 1 -4.97698 17.3851 30.4015
417 1 1 0 1 0.849644 21.3105 23.1439
418 1 1 0 1 0.809627 16.8937 26.9809
419 1 1 0 1 -8.02443 16.5644 4.14067
420 1 1 0 1 -3.34102 24.8135 18.2334
421 1 1 0 1 -5.81608 18.129 5.84647
422 1 1 0 1 -2.98113 4.03357 6.03613
423 1 1 0 1 -1.72448 28.3033 7.79089
424 1 1 0 1 -0.817143 14.1432 12.5788
425 1 1 0 1 -2.38488 12.8424 3.08348
426 1 1 0 1 -4.23406 20.5918 -7.1828
427 1 1 0 1 -3.5788 20.5278 7.2174
428 1 1 0 1 3.5153 14.6368 1.80941
429 1 1 0 1 -7.19773 24.7147 5.26319
430 1 1 0 1 -1.04574 15.1555 7.75207
431 1 1 0 1 -9.5898 14.4757 12.3969
432 1 1 0 1 -1.53499 28.5335 9.44334
433 1 1 0 1 -4.01782 20.1069 16.3893
434 1 1 0 1 -4.39096 3.19814 12.7668
435 1 1 0 1 -5.92392 11.6172 21.0109
436 1 1 0 1 -8.50455 14.0624 12.443
437 1 1 0 1 -3.3184 21.0494 15.9055
438 1 1 0 1 -5.75939 16.6939 16.5048
439 1 1 0 1 -2.70289 22.3427 20.1301
440 1 1 0 1 -3.8049 12.6584 23.0927
441 1 1 0 1 -4.29987 18.1438 -3.35578
442 1 1 0 1 -5.26084 20.4771 3.88711
443 1 1 0 1 -3.64461 15.2784 -3.62489
444 1 1 0 1 -1.22558 24.7416 1.89175
445 1 1 0 1 -7.40826 17.5882 4.43932
446 1 1 0 1 2.07006 5.54056 10.8706
447 1 1 0 1 -1.50125 10.7144 6.48697
448 1 1 0 1 -7.15193 18.3262 10.0629
449 1 1 0 1 -1.21037 21.0768 10.9191
450 1 1 0 1 -5.28359 10.6382 20.8937
451 1 1 0 1 -10.1482 14.0288 13.193
452 1 1 0 1 -6.26914 19.4877 20.3812
453 1 1 0 1 -4.58751 16.8124 16.3548
454 1 1 0 1 0.638111 22.2195 14.8158
455 1 1 0 1 -1.38543 5.17372 3.50984
456 1 1 0 1 -4.39163 18.3158 12.5322
457 1 1 0 1 -5.85168 20.1505 14.3643
458 1 1 0 1 -10.0235 15.3938 15.3249
459 1 1 0 1 -7.73167 16.7931 15.2059
460 1 1 0 1 -3.26654 15.4032 19.8233
461 1 1 0 1 -0.312196 18.7945 13.5481
462 1 1 0 1 6.35629 24.5561 20.3227
463 1 1 0 1 0.825122 18.4727 -2.07149
464 1 1 0 1 -2.98194 22.7869 8.90504
465 1 1 0 1 8.06288 24.6883 1.32686
466 1 1 0 1 -1.31598 29.183 0.796902
467 1 1 0 1 -5.90534 20.01 11.6857
468 1 1 0 1 -2.39283 22.0116 4.33326
469 1 1 0 1 1.23347 16.168 14.6374
470 1 1 0 1 -1.70455 20.0243 10.4613
471 1 1 0 1 -2.2501 7.51868 5.57177
472 1 1 0 1 3.33741 29.6717 17.0539
473 1 1 0 1 -9.02001 18.4899 9.1316
474 1 1 0 1 2.81767 12.5601 13.3718
475 1 1 0 1 0.896971 19.6552 18.0297
476 1 1 0 1 2.40853 27.1391 21.9137
477 1 1 0 1 3.074 21.1302 13.3773
478 1 1 0 1 6.00533 25.5457 16.4827
479 1 1 0 1 -6.5967 30.2603 8.45697
480 1 1 0 1 2.87096 19.4774 17.6572
481 1 1 0 1 -0.92275 20.7138 16.7392
482 1 1 0 1 -2.25233 32.3316 18.0432
483 1 1 0 1 4.34046 17.2043 28.0657
484 1 1 0 1 -3.05843 18.999 23.2423
485 1 1 0 1 -2.76222 -9.54307 1.39648
486 1 1 0 1 -2.64346 10.1131 -6.42848
487 1 1 0 1 0.366987 2.62802 -0.104703
488 1 1 0 1 -4.12482 -1.29768 4.12948
489 1 1 0 1 1.88913 0.354654 -4.26782
490 1 1 0 1 -8.49889 -0.0614197 4.99657
491 1 1 0 1 -6.81197 4.77432 5.30424
492 1 1 0 1 -2.06261 -11.917 14.1131
493 1 1 0 1 0.73242 -2.27494 11.2069
494 1 1 0 1 -6.36966 1.01749 5.67841
495 1 1 0 1 -6.27095 -0.0557821 17.2147
496 1 1 0 1 -0.318886 5.16581 19.9204
497 1 1 0 1 -0.913185 -6.42621 15.8064
498 1 1 0 1 0.112791 6.98281 10.7715
499 1 1 0 1 -1.04833 7.47583 9.39179
500 1 1 0 1 -4.93459 -3.79726 13.5631
501 1 1 0 1 1.33853 -0.267871 8.54269
502 1 1 0 1 0.848718 -10.5212 16.9406
503 1 1 0 1 -0.887735 8.11145 13.9188
504 1 1 0 1 -0.943452 -2.95854 10.5664
505 1 1 0 1 -2.51501 -3.46529 13.4836
506 1 1 0 1 -1.38866 7.14167 17.3802
507 1 1 0 1 -1.0896 3.45323 -2.31378
508 1 1 0 1 -1.91123 4.37357 1.48202
509 1 1 0 1 -4.79274 4.00461 2.80747
510 1 1 0 1 -8.31455 -5.43535 -2.14644
511 1 1 0 1 6.32643 1.65276 8.06406
512 1 1 0 1 -4.8137 14.5322 6.93995
513 1 1 0 1 -4.0565 -2.1818 8.11147
514 1 1 0 1 -1.96417 -1.91895 0.41302
515 1 1 0 1 8.29633 8.01606 2.73676
516 1 1 0 1 -5.96466 7.75091 9.37506
517 1 1 0 1 -2.16527 -0.949107 8.3939
518 1 1 0 1 1.30943 3.60268 4.80628
519 1 1 0 1 3.90538 0.402223 18.4699
520 1 1 0 1 0.797198 -3.58461 6.97834
521 1 1 0 1 -2.78766 4.67268 12.4424
522 1 1 0 1 -5.46679 8.3954 11.1463
523 1 1 0 1 1.35999 1.69579 18.1401
524 1 1 0 1 -2.02836 4.60913 15.632
525 1 1 0 1 -1.94612 1.87098 24.2818
526 1 1 0 1 0.999208 -3.26333 23.892
527 1 1 0 1 -3.76521 7.62442 20.5323
528 1 1 0 1 3.22096 3.36259 24.1609
529 1 1 0 1 7.9027 13.199 8.21348
530 1 1 0 1 4.04173 -1.39245 -5.41393
531 1 1 0 1 6.67666 12.3322 -3.68225
532 1 1 0 1 -0.219403 -6.83068 4.02453
533 1 1 0 1 -2.69252 6.78711 -5.47708
534 1 1 0 1 -1.06307 0.0899229 2.27352
535 1 1 0 1 2.74456 6.06183 -0.953193
536 1 1 0 1 -5.52109 12.9294 0.755259
537 1 1 0 1 1.92547 3.24408 8.08107
538 1 1 0 1 -2.32655 -1.51231 13.9667
539 1 1 0 1 -0.508824 6.88823 9.89334
540 1 1 0 1 1.66153 7.42128 8.7183
541 1 1 0 1 -6.3524 7.80133 10.5716
542 1 1 0 1 -3.8767 9.34943 12.0997
543 1 1 0 1 -3.81126 7.79877 3.75161
544 1 1 0 1 -0.806169 7.0156 7.49135
545 1 1 0 1 2.67959 6.68613 12.8906
546 1 1 0 1 -2.0913 -1.1695 12.7148
547 1 1 0 1 -0.514478 -2.68928 19.5628
548 1 1 0 1 -0.727645 5.59792 26.4778
549 1 1 0 1 0.746096 5.79208 26.9084
550 1 1 0 1 -4.60573 8.97145 21.9135
551 1 1 0 1 -3.2477 6.05558 -5.97896
552 1 1 0 1 -5.72644 2.57129 -5.16399
553 1 1 0 1 -0.914142 9.03405 2.32604
554 1 1 0 1 3.05474 5.34856 -1.97318
555 1 1 0 1 -2.88099 5.18962 -6.34293
556 1 1 0 1 -1.38143 1.2122 2.9798
557 1 1 0 1 1.85163 12.5582 0.716144
558 1 1 0 1 2.74505 3.32545 6.19066
559 1 1 0 1 -0.126879 -2.01116 11.9674
560 1 1 0 1 -4.23537 -3.70867 0.566688
561 1 1 0 1 1.08369 5.01277 14.3144
562 1 1 0 1 3.73484 5.04156 21.4486
563 1 1 0 1 -1.78001 1.42932 18.3848
564 1 1 0 1 -6.8247 -4.2759 8.13685
565 1 1 0 1 7.98579 7.09675 19.1603
566 1 1 0 1 4.33645 4.51887 12.5308
567 1 1 0 1 -3.99773 3.71256 18.7674
568 1 1 0 1 6.28375 6.50001 13.4948
569 1 1 0 1 2.34848 4.54755 17.6949
570 1 1 0 1 -2.37085 8.60283 27.3938
571 1 1 0 1 5.4905 6.14066 22.3788
572 1 1 0 1 1.51539 2.85578 21.7297
573 1 1 0 1 -0.0427775 3.89323 -4.00015
574 1 1 0 1 -3.204 0.815937 4.53074
575 1 1 0 1 -7.33405 2.61875 -8.03659
576 1 1 0 1 -0.25042 7.56879 0.0687025
577 1 1 0 1 -5.75463 -0.192222 5.8157
578 1 1 0 1 -3.11296 11.9306 12.1816
579 1 1 0 1 -6.72366 3.05506 3.53342
580 1 1 0 1 -3.64072 1.45699 10.9988
581 1 1 0 1 -2.66855 8.72412 10.369
582 1 1 0 1 -1.09566 5.47244 7.79244
583 1 1 0 1 -9.17875 12.0545 12.9991
584 1 1 0 1 -4.39246 7.75837 15.7613
585 1 1 0 1 -7.1823 2.68145 12.6741
586 1 1 0 1 -0.32895 12.395 17.7609
587 1 1 0 1 -4.08209 13.9191 14.1966
588 1 1 0 1 -7.0373 3.05517 18.7383
589 1 1 0 1 -6.70867 2.32261 16.0743
590 1 1 0 1 -6.08747 4.44912 14.0404
591 1 1 0 1 -6.81781 3.38325 9.41923
592 1 1 0 1 -3.43981 1.2471 17.8369
593 1 1 0 1 -1.09445 5.1498 15.268
594 1 1 0 1 -7.63349 -1.26995 21.5138
595 1 1 0 1 -0.0440265 0.299218 -2.78497
596 1 1 0 1 -1.06126 10.1403 4.62423
597 1 1 0 1 -8.47934 2.03296 4.58249
598 1 1 0 1 0.706499 7.61641 -0.553131
599 1 1 0 1 -1.89909 9.9178 -0.876843
600 1 1 0 1 0.0715176 5.33239 6.67646
601 1 1 0 1 -7.42022 8.36442 4.59357
602 1 1 0 1 -1.66349 -4.88102 4.34394
603 1 1 0 1 1.54799 -6.62309 17.6188
604 1 1 0 1 11.9965 8.39478 15.7185
605 1 1 0 1 -4.24292 8.85346 6.34075
606 1 1 0 1 -7.06634 -1.55831 14.9919
607 1 1 0 1 -5.67791 4.43837 8.02609
608 1 1 0 1 -0.129828 -3.18987 9.66236
609 1 1 0 1 5.82685 7.8321 13.4623
610 1 1 0 1 -0.136507 7.75966 9.50273
611 1 1 0 1 -3.51117 6.53203 8.70617
612 1 1 0 1 -0.25478 3.49412 24.7269
613 1 1 0 1 1.14189 3.84702 16.6489
614 1 1 0 1 -1.07904 10.1079 24.888
615 1 1 0 1 -11.1594 4.53966 19.0705
616 1 1 0 1 -4.27057 9.76675 16.8529
617 1 1 0 1 1.05087 0.60795 -3.43842
618 1 1 0 1 -8.71177 5.52009 2.90654
619 1 1 0 1 1.15576 18.4724 4.37074
620 1 1 0 1 2.02379 8.7013 4.22416
621 1 1 0 1 -2.00937 5.39603 5.74536
622 1 1 0 1 -6.88754 2.28697 1.78036
623 1 1 0 1 -0.791752 6.28337 5.26199
624 1 1 0 1 -5.06481 2.68361 2.46229
625 1 1 0 1 -2.72443 2.7919 4.51389
626 1 1 0 1 1.47097 4.96687 8.10545
627 1 1 0 1 -7.79557 -4.62069 16.4872
628 1 1 0 1 5.23709 -2.80773 7.80356
629 1 1 0 1 1.18677 11.4005 18.8072
630 1 1 0 1 3.23889 11.3446 19.2267
631 1 1 0 1 2.2913 7.75218 12.4188
632 1 1 0 1 6.76621 6.43028 16.0683
633 1 1 0 1 -6.77848 9.22667 14.4598
634 1 1 0 1 1.9021 6.33187 15.1347
635 1 1 0 1 1.72849 2.63459 17.9953
636 1 1 0 1 0.228739 2.61871 15.729
637 1 1 0 1 -9.23067 5.44877 19.967
638 1 1 0 1 0.949694 5.29691 22.3248
639 1 1 0 1 -2.60672 -3.03736 7.01438
640 1 1 0 1 -2.28045 13.9798 9.60636
641 1 1 0 1 9.66105 8.30088 -1.06416
642 1 1 0 1 0.183498 15.0167 11.4009
643 1 1 0 1 1.95531 12.9667 13.8087
644 1 1 0 1 -4.63356 7.11098 -0.0811026
645 1 1 0 1 -1.8981 3.96318 6.48481
646 1 1 0 1 0.158111 7.53841 7.42588
647 1 1 0 1 -6.21542 10.7459 -4.01089
648 1 1 0 1 -2.60584 11.0074 12.3541
649 1 1 0 1 -2.41752 6.85246 6.44038
650 1 1 0 1 5.73244 4.45501 13.8731
651 1 1 0 1 0.815379 11.1394 7.89584
652 1 1 0 1 -3.76896 16.3007 17.689
653 1 1 0 1 -2.66801 17.0525 11.8145
654 1 1 0 1 -0.00622903 7.65616 19.9759
655 1 1 0 1 -0.0221645 6.30089 3.44266
656 1 1 0 1 -3.88076 4.53221 12.5608
657 1 1 0 1 2.23228 7.11848 18.3684
658 1 1 0 1 0.884337 11.2442 23.9351
659 1 1 0 1 -4.47183 7.5382 14.5631
660 1 1 0 1 5.55384 7.83419 21.5151
661 1 1 0 1 -1.10152 7.81067 1.79188
662 1 1 0 1 1.16602 8.97514 -1.41694
663 1 1 0 1 -4.78242 8.00995 0.435711
664 1 1 0 1 -2.04854 9.51849 4.81918
665 1 1 0 1 -9.53412 1.0233 6.29908
666 1 1 0 1 9.56107 9.46114 10.0779
667 1 1 0 1 -5.35379 5.24713 -3.36715
668 1 1 0 1 -8.96629 4.03708 1.605
669 1 1 0 1 6.80172 5.24992 2.07753
670 1 1 0 1 -3.83211 6.17362 7.77206
671 1 1 0 1 4.34329 1.96127 4.68611
672 1 1 0 1 -1.77364 17.2892 15.6706
673 1 1 0 1 -5.82932 16.4879 12.342
674 1 1 0 1 0.805058 14.2755 17.1458
675 1 1 0 1 -2.67547 10.6513 21.5995
676 1 1 0 1 -3.75672 0.164904 17.4444
677 1 1 0 1 -1.23754 6.51472 18.1692
678 1 1 0 1 4.0443 5.72289 20.5038
679 1 1 0 1 -9.52186 7.14909 14.8961
680 1 1 0 1 -0.353368 3.23856 15.1681
681 1 1 0 1 -4.38715 7.99623 21.2681
682 1 1 0 1 5.35585 10.3648 25.6177
683 1 1 0 1 -4.06304 11.4642 2.48139
684 1 1 0 1 -4.08785 4.70607 -0.100824
685 1 1 0 1 0.281205 10.8357 4.65813
686 1 1 0 1 -2.68766 6.31889 5.02242
687 1 1 0 1 0.889156 14.9153 3.9091
688 1 1 0 1 -0.347619 14.628 13.7108
689 1 1 0 1 -1.16853 3.60013 5.0511
690 1 1 0 1 3.49826 3.22257 15.1088
691 1 1 0 1 -1.23599 3.8149 3.07668
692 1 1 0 1 -3.99667 7.60589 8.07396
693 1 1 0 1 -0.886177 3.74005 18.6008
694 1 1 0 1 -9.30644 12.3229 14.7899
695 1 1 0 1 -1.2849 11.7373 15.3696
696 1 1 0 1 -5.68023 4.89262 20.2805
697 1 1 0 1 -1.39705 8.34146 19.4212
698 1 1 0 1 -5.22608 9.1666 14.947
699 1 1 0 1 5.41839 6.68859 21.326
700 1 1 0 1 2.42581 12.8024 17.2574
701 1 1 0 1 -4.30115 11.7302 19.8456
702 1 1 0 1 -4.87138 7.684 20.3174
703 1 1 0 1 -3.48102 12.3183 20.6589
704 1 1 0 1 5.64888 22.2328 19.1553
705 1 1 0 1 -1.75401 7.21448 3.29862
706 1 1 0 1 -2.08922 9.00997 -5.45217
707 1 1 0 1 0.380841 28.96 1.07274
708 1 1 0 1 3.70234 7.46196 2.83252
709 1 1 0 1 -8.76647 13.4143 3.18207
710 1 1 0 1 -4.1824 8.88583 -1.41492
711 1 1 0 1 -5.80133 7.32475 5.59282
712 1 1 0 1 -1.19809 13.8073 13.4783
713 1 1 0 1 -0.784196 10.9867 5.54161
714 1 1 0 1 -1.81917 14.4475 -0.424441
715 1 1 0 1 -4.12335 9.74067 15.0602
716 1 1 0 1 -3.91998 14.5943 19.2542
717 1 1 0 1 -2.20811 14.3291 17.262
718 1 1 0 1 -0.678028 7.15 14.4626
719 1 1 0 1 -6.02751 7.07668 15.0567
720 1 1 0 1 -4.81414 12.2965 23.7394
721 1 1 0 1 -8.97197 13.6079 13.6399
722 1 1 0 1 5.57849 19.9468 27.4175
723 1 1 0 1 -3.21964 10.651 17.759
724 1 1 0 1 -2.01726 16.5083 21.4722
725 1 1 0 1 1.7682 14.6145 26.5647
726 1 1 0 1 -9.18155 16.1031 19.4633
727 1 1 0 1 0.810734 15.4585 1.79558
728 1 1 0 1 -3.83704 19.1417 -3.40332
729 1 1 0 1 -3.49775 6.03738 -6.99025
730 1 1 0 1 -2.0013 16.2096 6.61453
731 1 1 0 1 0.55451 15.7587 6.42668
732 1 1 0 1 6.88503 10.9875 5.39644
733 1 1 0 1 -6.19664 11.6648 5.20363
734 1 1 0 1 2.7827 4.98096 2.71379
735 1 1 0 1 -6.79117 13.196 7.22222
736 1 1 0 1 -7.40171 17.9508 -3.26205
737 1 1 0 1 0.42197 11.5566 15.9681
738 1 1 0 1 8.75359 14.2139 9.7687
739 1 1 0 1 -6.17744 5.71162 15.6855
740 1 1 0 1 -2.04949 10.679 19.0304
741 1 1 0 1 -2.75532 8.42535 18.7632
742 1 1 0 1 3.0809 11.0754 21.5651
743 1 1 0 1 -5.41013 10.7729 22.0477
744 1 1 0 1 4.58509 15.6181 25.6634
745 1 1 0 1 -3.35138 11.1272 19.7929
746 1 1 0 1 -0.900378 13.9861 20.8776
747 1 1 0 1 5.19098 11.3138 22.6153
748 1 1 0 1 2.89179 14.3196 31.3511
749 1 1 0 1 0.767658 10.1359 1.29298
750 1 1 0 1 1.00686 12.2569 10.6575
751 1 1 0 1 -13.348 12.4054 7.24944
752 1 1 0 1 -2.82894 18.0772 10.3242
753 1 1 0 1 -4.85649 11.4198 10.0463
754 1 1 0 1 3.38875 12.8083 0.440433
755 1 1 0 1 1.42395 17.4199 0.618122
756 1 1 0 1 -8.27122 26.0199 4.43964
757 1 1 0 1 -4.36889 12.7475 13.5843
758 1 1 0 1 -8.76193 21.9627 12.115
759 1 1 0 1 -3.55502 9.77516 4.82077
760 1 1 0 1 -0.916799 4.05111 15.9005
761 1 1 0 1 -6.81107 15.3942 18.5452
762 1 1 0 1 -9.68264 13.6637 10.5925
763 1 1 0 1 6.81771 16.8806 9.87744
764 1 1 0 1 -3.03244 19.3689 14.4073
765 1 1 0 1 2.66242 13.1161 19.2069
766 1 1 0 1 -5.16607 12.8762 14.3708
767 1 1 0 1 -12.7569 14.8185 19.9407
768 1 1 0 1 -4.96557 15.6394 25.5532
769 1 1 0 1 8.54 7.65622 23.4982
770 1 1 0 1 -2.48153 14.6274 23.755
771 1 1 0 1 -4.9882 11.0773 1.53674
772 1 1 0 1 0.0246766 16.3059 15.1629
773 1 1 0 1 -3.05654 11.4572 1.77871
774 1 1 0 1 -1.20168 8.46659 15.6009
775 1 1 0 1 -6.36078 14.4831 -3.50622
776 1 1 0 1 -0.731726 11.7037 8.51426
777 1 1 0 1 -1.36391 15.0177 12.1347
778 1 1 0 1 -2.01487 14.2857 14.1546
779 1 1 0 1 0.0201246 13.7722 19.3724
780 1 1 0 1 -3.15887 16.7697 8.04938
781 1 1 0 1 2.67735 19.5384 20.804
782 1 1 0 1 -3.10946 19.2316 16.234
783 1 1 0 1 -2.93422 12.7906 9.39291
784 1 1 0 1 -6.30571 16.1123 23.1631
785 1 1 0 1 -5.03659 26.0897 17.6791
786 1 1 0 1 -4.96998 10.8045 18.4054
787 1 1 0 1 3.13123 11.9275 25.0351
788 1 1 0 1 -11.7381 17.5122 12.4112
789 1 1 0 1 -5.01599 18.43 17.8759
790 1 1 0 1 -4.16254 14.5846 26.0421
791 1 1 0 1 -7.177 13.5493 20.4554
792 1 1 0 1 -3.66633 9.69618 20.8506
793 1 1 0 1 -8.24035 20.4973 4.54233
794 1 1 0 1 -2.21936 18.582 4.972
795 1 1 0 1 4.3481 24.1429 -2.40854
796 1 1 0 1 -0.0765941 14.1964 9.51141
797 1 1 0 1 -4.41957 23.5835 -1.12195
798 1 1 0 1 2.27146 9.75628 -1.97911
799 1 1 0 1 -1.82567 14.6988 8.62294
800 1 1 0 1 4.50275 7.38685 -0.618307
801 1 1 0 1 8.21763 15.0814 11.7317
802 1 1 0 1 -2.77456 20.6709 9.21751
803 1 1 0 1 0.851498 13.1497 18.4873
804 1 1 0 1 -2.19579 15.3097 14.3084
805 1 1 0 1 -7.52728 14.685 18.9734
806 1 1 0 1 -2.92728 1.66585 3.02828
807 1 1 0 1 -0.149139 17.4091 15.9707
808 1 1 0 1 -0.73799 19.0249 12.1839
809 1 1 0 1 -3.16329 17.5332 12.8149