ITEM: TIMESTEP
27000
ITEM: NUMBER OF ATOMS
6752
ITEM: BOX BOUNDS pp pp pp
0.0000000000000000e+00 2.2000000000000000e+01
0.0000000000000000e+00 2.2000000000000000e+01
0.0000000000000000e+00 2.2000000000000000e+01
ITEM: ATOMS id mol type q mass xu yu zu
1 1 1 0 1 -3.9598 -9.10031 3.85504
2 1 1 0 1 -2.08916 6.95116 -2.95128
3 1 1 0 1 -3.83534 -0.0168422 1.98389
4 1 1 0 1 -9.20783 1.02475 4.50858
5 1 1 0 1 2.0869 10.1687 1.34572
6 1 1 0 1 -14.7444 -4.60598 6.10644
7 1 1 0 1 5.77962 8.36969 9.60884
8 1 1 0 1 3.65711 -4.62281 14.0979
9 1 1 0 1 -0.753409 -0.849831 10.8637
10 1 1 0 1 -8.87842 -3.49089 12.7213
11 1 1 0 1 1.91791 -3.7045 0.405117
12 1 1 0 1 -6.61417 -5.55059 14.0808
13 1 1 0 1 6.21652 3.49318 12.4937
14 1 1 0 1 -1.83714 12.2403 10.5284
15 1 1 0 1 -7.84515 1.98489 10.6071
16 1 1 0 1 -4.33622 -7.76995 13.5451
17 1 1 0 1 0.591219 -2.78934 17.4873
18 1 1 0 1 -7.45384 -9.82334 22.5246
19 1 1 0 1 -3.67428 4.90397 15.7413
20 1 1 0 1 -9.08885 3.1455 20.297
21 1 1 0 1 -7.53495 3.2226 15.6018
22 1 1 0 1 1.02784 10.1317 20.1545
23 1 1 0 1 -11.0666 -0.974281 8.77874
24 1 1 0 1 -9.23208 6.74163 1.55071
25 1 1 0 1 -1.70723 2.87256 -7.58027
26 1 1 0 1 0.438889 -4.35106 4.86916
27 1 1 0 1 -6.14897 -1.59177 11.8862
28 1 1 0 1 -1.48379 3.29223 -0.918761
29 1 1 0 1 -4.54738 -4.70218 14.214
30 1 1 0 1 -4.18789 2.75031 18.8294
31 1 1 0 1 -4.04185 9.64479 10.1675
32 1 1 0 1 -3.54105 -3.97019 6.12884
33 1 1 0 1 -9.1294 -1.94061 11.1132
34 1 1 0 1 -5.19211 4.52303 13.7346
35 1 1 0 1 0.76406 5.90786 14.2528
36 1 1 0 1 4.68061 1.37925 7.73383
37 1 1 0 1 -2.00924 1.86827 16.4833
38 1 1 0 1 1.74719 1.34453 23.9683
39 1 1 0 1 -1.64308 7.56494 7.99993
40 1 1 0 1 -4.88428 6.56919 16.0428
41 1 1 0 1 -5.20674 -3.718 16.1421
42 1 1 0 1 -4.84717 0.845502 27.0176
43 1 1 0 1 -1.65175 8.42323 15.0177
44 1 1 0 1 -4.21707 8.39765 15.5677
45 1 1 0 1 -11.8891 4.8225 2.47796
46 1 1 0 1 -3.72036 3.6579 8.83344
47 1 1 0 1 -5.06299 -0.548475 2.08155
48 1 1 0 1 -6.94728 14.4424 -0.288149
49 1 1 0 1 -7.73358 6.03794 0.772477
50 1 1 0 1 -4.7404 4.53219 -1.56393
51 1 1 0 1 0.1255 2.56774 2.94873
52 1 1 0 1 0.210261 4.0763 13.2561
53 1 1 0 1 -3.60957 -1.5514 3.30734
54 1 1 0 1 -5.53674 -0.901681 19.6466
55 1 1 0 1 -1.8892 1.02671 9.69157
56 1 1 0 1 -2.02642 0.183739 6.17315
57 1 1 0 1 -4.63449 10.0836 17.7188
58 1 1 0 1 -5.65472 9.90883 11.1202
59 1 1 0 1 -5.75609 3.90998 9.60086
60 1 1 0 1 -0.541285 1.6182 24.148
61 1 1 0 1 -3.90505 8.43998 13.049
62 1 1 0 1 3.09437 4.66905 24.4249
63 1 1 0 1 1.63584 8.70637 3.99609
64 1 1 0 1 -1.85171 -0.988526 13.524
65 1 1 0 1 -12.9801 -2.1625 20.107
66 1 1 0 1 -3.57297 6.05934 24.7357
67 1 1 0 1 -5.00135 -6.70331 -4.33034
68 1 1 0 1 -6.24353 4.79305 -10.5285
69 1 1 0 1 -3.43607 5.93224 -0.16644
70 1 1 0 1 -0.539557 12.0112 3.28554
71 1 1 0 1 0.184425 0.55207 4.69816
72 1 1 0 1 -14.98 5.54034 -0.109656
73 1 1 0 1 -0.0517589 1.78235 4.14522
74 1 1 0 1 -3.16333 1.17481 17.8263
75 1 1 0 1 -0.514904 0.997806 6.57655
76 1 1 0 1 -0.572427 -2.43487 9.5996
77 1 1 0 1 -8.41872 -2.6763 9.37572
78 1 1 0 1 -1.23344 6.04836 10.4217
79 1 1 0 1 -0.508986 3.18168 13.0064
80 1 1 0 1 0.413527 -5.09606 10.9458
81 1 1 0 1 -1.98604 10.8836 18.6409
82 1 1 0 1 -2.46254 -4.8069 12.9783
83 1 1 0 1 -6.70194 -0.346801 18.2904
84 1 1 0 1 3.1059 5.30462 16.6802
85 1 1 0 1 -3.33261 -2.87371 25.0952
86 1 1 0 1 -4.79836 -3.97145 17.7845
87 1 1 0 1 0.428403 6.64227 22.1218
88 1 1 0 1 -3.63952 7.61971 18.6483
89 1 1 0 1 -4.97902 10.5599 -0.0675439
90 1 1 0 1 -0.533149 11.6537 10.1699
91 1 1 0 1 -2.40554 -1.61046 9.53126
92 1 1 0 1 0.351049 6.70935 2.7782
93 1 1 0 1 0.497116 8.62857 3.05627
94 1 1 0 1 -2.77264 -4.83638 3.30956
95 1 1 0 1 -3.7609 8.19034 8.59511
96 1 1 0 1 3.15304 3.03512 2.02121
97 1 1 0 1 -5.23134 9.96861 10.1164
98 1 1 0 1 4.01662 6.14452 7.59501
99 1 1 0 1 -2.22063 7.16648 5.00626
100 1 1 0 1 0.747672 2.69005 1.48681
101 1 1 0 1 -4.05765 3.58749 6.59676
102 1 1 0 1 -4.50699 3.51196 10.0385
103 1 1 0 1 -6.16388 7.12723 12.2682
104 1 1 0 1 -2.3408 14.8348 12.616
105 1 1 0 1 -0.402671 4.28041 3.30593
106 1 1 0 1 -1.05099 5.29428 20.8847
107 1 1 0 1 -5.45088 8.50739 14.7712
108 1 1 0 1 1.97379 5.60059 14.3542
109 1 1 0 1 -9.68792 2.5774 25.2691
110 1 1 0 1 -7.9649 5.95716 24.8213
111 1 1 0 1 -7.52296 3.23919 3.62089
112 1 1 0 1 -3.15195 8.56262 -5.02378
113 1 1 0 1 -2.51387 6.08345 15.6314
114 1 1 0 1 2.05095 8.083 5.8447
115 1 1 0 1 -7.05648 11.1459 -0.583596
116 1 1 0 1 -0.726535 14.2843 9.93432
117 1 1 0 1 -3.26771 10.0841 3.6364
118 1 1 0 1 -3.90198 2.27378 2.26072
119 1 1 0 1 -5.63671 5.62872 11.0823
120 1 1 0 1 -1.17937 2.84975 8.03847
121 1 1 0 1 -0.435439 1.69649 3.22361
122 1 1 0 1 3.03226 3.93935 5.47037
123 1 1 0 1 -2.51532 3.97162 10.7546
124 1 1 0 1 -7.83761 11.2451 13.7501
125 1 1 0 1 -8.99885 8.37824 5.11442
126 1 1 0 1 -5.56589 5.99973 24.7893
127 1 1 0 1 -0.437877 9.92687 15.7858
128 1 1 0 1 -9.80009 7.1468 12.3886
129 1 1 0 1 -2.66926 5.47444 26.6135
130 1 1 0 1 -3.43327 6.22643 13.6361
131 1 1 0 1 -13.409 2.3555 6.96816
132 1 1 0 1 -5.4971 5.132 27.6603
133 1 1 0 1 2.113 6.61944 3.97951
134 1 1 0 1 -7.7811 8.30463 10.8453
135 1 1 0 1 -5.45391 0.732519 3.28206
136 1 1 0 1 -0.174164 15.2452 2.92764
137 1 1 0 1 -8.58724 4.20985 9.09045
138 1 1 0 1 -9.53812 11.0157 17.3161
139 1 1 0 1 4.43178 4.64128 3.53987
140 1 1 0 1 -10.619 10.6725 -0.105697
141 1 1 0 1 3.62575 5.44431 1.22605
142 1 1 0 1 -4.5474 2.24238 8.21995
143 1 1 0 1 -1.03102 0.991817 10.7605
144 1 1 0 1 -0.229924 1.00632 8.80009
145 1 1 0 1 -8.07627 8.28956 19.8312
146 1 1 0 1 -8.37676 11.6414 20.6099
147 1 1 0 1 -1.37236 24.703 15.5154
148 1 1 0 1 -6.21108 13.8411 13.0829
149 1 1 0 1 -10.7412 2.72706 20.4117
150 1 1 0 1 -7.90829 7.19092 2.89286
151 1 1 0 1 -5.14373 5.47457 19.5612
152 1 1 0 1 -4.36857 0.275151 18.2496
153 1 1 0 1 -4.01129 11.9842 21.0355
154 1 1 0 1 -4.19407 5.30858 23.3251
155 1 1 0 1 -2.28316 6.64406 -5.45893
156 1 1 0 1 -0.369135 5.89552 -1.66782
157 1 1 0 1 -5.91728 12.114 4.42316
158 1 1 0 1 -3.39169 15.1662 2.33537
159 1 1 0 1 -4.65621 5.49104 0.499362
160 1 1 0 1 -5.60165 4.67901 4.23448
161 1 1 0 1 -1.65468 12.1242 5.58493
162 1 1 0 1 -5.6292 8.1814 9.11749
163 1 1 0 1 0.622003 7.85336 3.85466
164 1 1 0 1 -7.81359 7.45701 12.5814
165 1 1 0 1 -1.43551 1.68136 14.9036
166 1 1 0 1 -4.39366 13.6301 21.9509
167 1 1 0 1 -8.32655 17.186 15.4335
168 1 1 0 1 -8.79003 6.65349 22.1222
169 1 1 0 1 -10.8951 14.8765 13.9807
170 1 1 0 1 3.72255 9.24322 21.4729
171 1 1 0 1 -4.50316 13.2828 24.9655
172 1 1 0 1 0.0633431 9.9207 19.0814
173 1 1 0 1 -2.40645 3.02207 18.1546
174 1 1 0 1 6.44698 5.7319 20.6861
175 1 1 0 1 -5.34431 8.11038 18.9488
176 1 1 0 1 2.30179 5.20558 24.9583
177 1 1 0 1 -6.08349 4.7217 -0.196521
178 1 1 0 1 0.912575 17.9863 7.91751
179 1 1 0 1 -7.30934 15.71 2.47027
180 1 1 0 1 -2.66362 17.9919 -0.833885
181 1 1 0 1 -8.00485 14.4718 0.577542
182 1 1 0 1 -8.30864 15.3868 5.4259
183 1 1 0 1 -5.2754 15.7696 2.0855
184 1 1 0 1 -3.91666 10.5573 7.65743
185 1 1 0 1 -8.11935 2.4195 8.68093
186 1 1 0 1 -13.8936 16.2567 11.8564
187 1 1 0 1 -8.36191 15.4672 13.2923
188 1 1 0 1 -0.0323202 -0.270235 11.7362
189 1 1 0 1 -5.33643 13.3731 18.7772
190 1 1 0 1 -7.69071 4.09177 14.7794
191 1 1 0 1 -4.12513 8.77341 24.4573
192 1 1 0 1 -2.7249 5.6749 12.7089
193 1 1 0 1 -2.55015 3.76734 20.3133
194 1 1 0 1 7.03555 11.253 19.0131
195 1 1 0 1 -5.98907 8.08513 13.9879
196 1 1 0 1 0.432481 6.65125 20.198
197 1 1 0 1 -3.86411 4.35635 18.3699
198 1 1 0 1 6.74703 8.06317 26.0239
199 1 1 0 1 -1.44958 11.3852 2.36074
200 1 1 0 1 4.80118 7.64149 8.53861
201 1 1 0 1 -3.78703 17.8375 -1.76064
202 1 1 0 1 -2.99992 3.01865 4.41316
203 1 1 0 1 -7.78443 10.1089 4.54115
204 1 1 0 1 -0.449451 4.14466 14.7597
205 1 1 0 1 4.95317 5.20289 1.73876
206 1 1 0 1 0.150638 7.92539 4.92996
207 1 1 0 1 -2.35866 8.20048 1.98999
208 1 1 0 1 -0.942363 4.54728 9.83197
209 1 1 0 1 -1.9316 2.05256 2.52047
210 1 1 0 1 -6.52214 7.96495 7.03412
211 1 1 0 1 -2.91725 7.90315 6.09847
212 1 1 0 1 -11.3006 9.83733 14.5091
213 1 1 0 1 -5.11192 12.9017 26.0451
214 1 1 0 1 -16.1255 24.001 17.5297
215 1 1 0 1 -7.02722 14.6832 15.1297
216 1 1 0 1 -7.99976 13.3484 18.9559
217 1 1 0 1 -11.1551 15.584 27.8137
218 1 1 0 1 4.21407 6.95668 23.1387
219 1 1 0 1 5.3892 10.0498 25.5961
220 1 1 0 1 5.16719 17.4015 22.29
221 1 1 0 1 13.0461 9.59918 -1.17698
222 1 1 0 1 -6.05816 15.2909 -1.27265
223 1 1 0 1 -10.0563 11.6775 0.498576
224 1 1 0 1 -5.62365 8.83155 -6.07118
225 1 1 0 1 -9.00294 19.1827 3.62201
226 1 1 0 1 -11.0532 11.7628 9.57024
227 1 1 0 1 -9.94481 14.5687 9.42264
228 1 1 0 1 -9.42113 16.5874 1.24563
229 1 1 0 1 5.6312 10.4962 12.7407
230 1 1 0 1 -2.11997 14.83 9.36286
231 1 1 0 1 -3.98588 9.04795 12.0881
232 1 1 0 1 0.828798 0.522815 11.9584
233 1 1 0 1 -0.628225 11.7532 15.501
234 1 1 0 1 -10.1543 13.7549 14.3514
235 1 1 0 1 -6.10581 10.8036 15.5302
236 1 1 0 1 -5.88039 8.80511 12.9957
237 1 1 0 1 -10.6729 14.5927 17.7918
238 1 1 0 1 -5.98854 11.0946 14.3712
239 1 1 0 1 -2.397 9.80697 14.9502
240 1 1 0 1 -6.11123 13.815 10.6886
241 1 1 0 1 -3.65126 5.85709 17.8206
242 1 1 0 1 -2.63538 -0.14486 20.9664
243 1 1 0 1 -4.837 12.2804 -1.37007
244 1 1 0 1 -1.43996 9.8726 -4.27977
245 1 1 0 1 -4.84695 15.697 0.946798
246 1 1 0 1 -2.27311 11.1254 1.0186
247 1 1 0 1 -5.98649 11.2823 8.52648
248 1 1 0 1 -1.31376 -3.52505 7.2718
249 1 1 0 1 -8.60825 11.0991 6.20755
250 1 1 0 1 -0.605662 6.33954 3.05399
251 1 1 0 1 -7.64533 7.06365 4.97294
252 1 1 0 1 -1.56489 3.61388 5.17375
253 1 1 0 1 1.61432 0.435278 19.339
254 1 1 0 1 -0.548991 10.8855 20.2424
255 1 1 0 1 -10.1413 1.53643 7.85272
256 1 1 0 1 -10.3967 18.7033 9.57009
257 1 1 0 1 2.62159 16.36 17.5398
258 1 1 0 1 3.10893 12.3041 18.4284
259 1 1 0 1 -5.71246 12.1326 19.0889
260 1 1 0 1 -3.49318 15.7662 18.9405
261 1 1 0 1 -2.33008 7.96742 16.2961
262 1 1 0 1 -6.36139 9.74265 18.8216
263 1 1 0 1 4.21214 15.5082 19.482
264 1 1 0 1 -1.25963 17.5863 23.8426
265 1 1 0 1 -5.61882 12.6512 -0.00593133
266 1 1 0 1 7.88018 23.2401 5.15124
267 1 1 0 1 1.59878 15.5756 8.51736
268 1 1 0 1 -3.55031 4.20534 -1.65544
269 1 1 0 1 0.327943 9.94882 9.7585
270 1 1 0 1 -2.9472 15.2935 -1.0103
271 1 1 0 1 -4.46431 7.67395 7.61083
272 1 1 0 1 -7.02766 7.75303 15.8185
273 1 1 0 1 -1.49517 14.3199 8.79711
274 1 1 0 1 -12.0071 7.93068 7.0516
275 1 1 0 1 -7.92134 -0.456073 12.7
276 1 1 0 1 1.68916 15.4216 10.7935
277 1 1 0 1 -7.12654 8.14633 11.9653
278 1 1 0 1 0.197708 14.4755 20.4366
279 1 1 0 1 -4.31985 18.5351 12.4936
280 1 1 0 1 -4.67937 14.3695 9.80017
281 1 1 0 1 -0.583103 11.2181 26.1156
282 1 1 0 1 -3.56719 14.0153 10.9386
283 1 1 0 1 -3.5646 13.3652 16.7982
284 1 1 0 1 -6.13509 15.9657 15.0354
285 1 1 0 1 -6.85693 2.95704 16.6596
286 1 1 0 1 -4.08891 9.02389 22.0035
287 1 1 0 1 -7.94909 24.2909 5.54009
288 1 1 0 1 -4.13216 15.1748 -1.81145
289 1 1 0 1 -10.6961 3.57812 5.28245
290 1 1 0 1 -4.57193 7.77562 5.06442
291 1 1 0 1 -7.10725 0.754835 9.73067
292 1 1 0 1 -6.22669 13.2218 12.1523
293 1 1 0 1 0.444415 7.36203 7.57562
294 1 1 0 1 -1.00902 12.8791 6.38513
295 1 1 0 1 -4.31738 5.99576 7.63503
296 1 1 0 1 -2.78817 13.7936 16.4485
297 1 1 0 1 -8.15852 11.0637 5.23811
298 1 1 0 1 -8.17833 5.39542 19.3086
299 1 1 0 1 2.90035 17.6776 13.1905
300 1 1 0 1 2.935 19.6485 19.384
301 1 1 0 1 0.698384 17.6177 19.3289
302 1 1 0 1 -3.19696 15.9152 14.847
303 1 1 0 1 -11.3848 16.2115 8.1713
304 1 1 0 1 -0.0153372 6.43355 10.9905
305 1 1 0 1 7.1955 10.8378 21.5848
306 1 1 0 1 -3.22581 14.2266 21.729
307 1 1 0 1 2.56836 17.2377 21.8784
308 1 1 0 1 4.22087 28.2604 26.244
309 1 1 0 1 -0.398816 12.9668 5.41693
310 1 1 0 1 2.39553 11.2147 8.03529
311 1 1 0 1 -12.977 13.212 -5.47612
312 1 1 0 1 -8.25632 5.09528 6.29966
313 1 1 0 1 -11.7646 14.5581 2.32116
314 1 1 0 1 -2.5075 9.91762 0.655107
315 1 1 0 1 3.45311 11.5745 5.04815
316 1 1 0 1 -10.1326 21.6724 8.29851
317 1 1 0 1 -3.06052 14.2112 9.11483
318 1 1 0 1 -3.86022 19.0367 11.2608
319 1 1 0 1 -4.2224 10.1866 6.31475
320 1 1 0 1 3.90905 20.4666 6.60845
321 1 1 0 1 -4.59771 14.743 15.6103
322 1 1 0 1 -2.84313 12.3235 21.0066
323 1 1 0 1 -3.88698 12.9 5.85003
324 1 1 0 1 -1.22625 10.5636 3.47802
325 1 1 0 1 1.21173 10.6332 9.66831
326 1 1 0 1 -2.17058 16.4149 17.0396
327 1 1 0 1 -9.63612 12.8125 17.6372
328 1 1 0 1 0.472683 16.6646 22.8754
329 1 1 0 1 -1.0056 15.1061 24.2221
330 1 1 0 1 5.83289 18.4477 24.4134
331 1 1 0 1 -7.01495 13.9125 11.4853
332 1 1 0 1 -1.29629 19.2246 4.82734
333 1 1 0 1 2.2917 7.01309 6.46274
334 1 1 0 1 -4.96388 16.9312 1.32615
335 1 1 0 1 0.332317 12.2182 10.4834
336 1 1 0 1 -8.47227 15.3944 0.832679
337 1 1 0 1 -5.25179 12.0076 3.1708
338 1 1 0 1 -5.68394 10.4858 5.16877
339 1 1 0 1 -10.409 11.2109 7.2617
340 1 1 0 1 -3.62628 7.35909 9.8108
341 1 1 0 1 -3.07603 8.75081 5.22737
342 1 1 0 1 -0.665863 16.5549 7.89574
343 1 1 0 1 3.06771 6.22377 5.18903
344 1 1 0 1 -8.41108 8.36835 11.8363
345 1 1 0 1 -5.40471 19.8289 13.877
346 1 1 0 1 -2.35248 16.8818 20.3534
347 1 1 0 1 -0.432531 19.1855 15.5474
348 1 1 0 1 -4.42873 12.785 16.8875
349 1 1 0 1 0.610558 21.3581 15.6355
350 1 1 0 1 -3.46007 14.1048 15.7821
351 1 1 0 1 -9.20868 22.2318 21.1579
352 1 1 0 1 -0.0200532 16.033 29.4078
353 1 1 0 1 -11.2314 18.4884 -3.67213
354 1 1 0 1 2.45677 16.7432 2.61024
355 1 1 0 1 -4.88666 10.8582 4.27234
356 1 1 0 1 -7.00121 11.2177 4.46937
357 1 1 0 1 1.13866 17.2864 -0.294545
358 1 1 0 1 -3.9278 17.1057 6.41775
359 1 1 0 1 -10.3324 13.6419 15.4299
360 1 1 0 1 0.473154 10.2611 4.29187
361 1 1 0 1 -0.311021 16.2231 10.2523
362 1 1 0 1 -1.2078 13.4 10.7324
363 1 1 0 1 -0.343288 12.8926 10.0341
364 1 1 0 1 4.92795 8.93813 9.91797
365 1 1 0 1 -3.31079 2.78926 5.72589
366 1 1 0 1 -2.58447 12.6615 12.401
367 1 1 0 1 -1.07562 9.15489 13.3859
368 1 1 0 1 -3.08129 20.2375 15.0561
369 1 1 0 1 -3.17878 13.39 11.8638
370 1 1 0 1 -1.98726 4.4326 7.16704
371 1 1 0 1 -10.7775 17.1964 24.5326
372 1 1 0 1 -3.66787 18.4486 21.2522
373 1 1 0 1 -4.82916 12.2205 15.8523
374 1 1 0 1 -1.09406 12.1252 26.6741
375 1 1 0 1 -7.22603 1.99044 8.43552
376 1 1 0 1 -7.5376 17.2549 -0.0522002
377 1 1 0 1 -12.1006 8.79079 1.33365
378 1 1 0 1 -9.74284 15.01 8.44092
379 1 1 0 1 1.72812 14.4305 -5.43282
380 1 1 0 1 -2.26975 15.3402 4.03715
381 1 1 0 1 -6.95419 14.5978 7.5238
382 1 1 0 1 -15.6838 17.0824 16.7897
383 1 1 0 1 -2.81869 20.8847 10.5967
384 1 1 0 1 0.806764 10.887 12.9853
385 1 1 0 1 -7.53237 17.0743 7.30015
386 1 1 0 1 -3.82564 12.6178 11.5369
387 1 1 0 1 -5.47171 14.18 16.7485
388 1 1 0 1 -7.24296 16.0453 14.9655
389 1 1 0 1 -3.81272 20.6311 17.7032
390 1 1 0 1 -1.10676 13.862 20.5945
391 1 1 0 1 -5.09147 22.8899 18.9529
392 1 1 0 1 -7.99252 18.2143 5.73179
393 1 1 0 1 -4.89227 10.2769 12.2771
394 1 1 0 1 -2.34673 17.4183 23.6612
395 1 1 0 1 -12.5958 15.9063 12.2524
396 1 1 0 1 -0.226965 7.81818 22.7854
397 1 1 0 1 -3.8715 20.0371 -0.822027
398 1 1 0 1 -3.38929 25.8155 0.425703
399 1 1 0 1 -1.82594 12.3933 1.4456
400 1 1 0 1 -7.47839 12.9387 2.14659
401 1 1 0 1 -3.01501 10.0781 14.0467
402 1 1 0 1 -5.27043 11.814 13.4481
403 1 1 0 1 2.08 14.739 12.6758
404 1 1 0 1 -2.97338 28.4855 4.83653
405 1 1 0 1 -11.5588 14.0357 8.95681
406 1 1 0 1 -6.95917 19.0649 8.04012
407 1 1 0 1 -4.68955 17.5842 7.21239
408 1 1 0 1 -8.7306 20.3328 13.7316
409 1 1 0 1 -7.63179 11.6655 12.8515
410 1 1 0 1 -5.61485 3.68952 7.39481
411 1 1 0 1 4.99621 18.2499 6.56016
412 1 1 0 1 -12.2285 13.1322 4.15225
413 1 1 0 1 -13.1294 13.9754 17.8551
414 1 1 0 1 -5.77112 10.1911 20.1906
415 1 1 0 1 -0.330416 15.5002 28.3688
416 1 1 0 1 -4.52596 16.0305 29.8907
417 1 1 0 1 0.658649 21.9318 24.6373
418 1 1 0 1 0.473146 15.8818 27.8448
419 1 1 0 1 -7.28114 17.8078 1.70122
420 1 1 0 1 -3.0661 24.9777 19.1407
421 1 1 0 1 -5.03234 17.0374 8.17603
422 1 1 0 1 -3.59588 5.11665 4.36303
423 1 1 0 1 0.161881 30.4418 9.25366
424 1 1 0 1 -1.8409 15.8449 14.5792
425 1 1 0 1 -3.54587 13.1625 2.78617
426 1 1 0 1 -5.6662 18.5134 -4.75613
427 1 1 0 1 -3.77693 21.6298 6.40598
428 1 1 0 1 3.02258 14.1741 0.116213
429 1 1 0 1 -7.38258 23.8668 6.45981
430 1 1 0 1 -0.382041 14.9779 7.61728
431 1 1 0 1 -10.5755 12.83 13.5948
432 1 1 0 1 -1.05468 25.5562 7.35741
433 1 1 0 1 -5.19501 19.1798 14.765
434 1 1 0 1 -4.3804 5.52043 9.76972
435 1 1 0 1 -6.88292 12.9333 21.9678
436 1 1 0 1 -7.52611 13.2076 13.0853
437 1 1 0 1 -1.36939 21.865 16.6367
438 1 1 0 1 -7.69555 15.7789 17.4977
439 1 1 0 1 -3.15186 22.3546 20.1286
440 1 1 0 1 -4.99655 12.8242 23.8907
441 1 1 0 1 -4.93035 17.427 -2.7709
442 1 1 0 1 -5.91922 19.9827 4.29527
443 1 1 0 1 -3.17282 15.8915 -1.9026
444 1 1 0 1 -1.95995 23.368 4.08786
445 1 1 0 1 -5.15507 20.1905 2.15085
446 1 1 0 1 3.53957 6.49883 12.2972
447 1 1 0 1 0.218428 11.536 4.91873
448 1 1 0 1 -5.49686 16.6925 9.07013
449 1 1 0 1 0.751995 19.1137 11.13
450 1 1 0 1 -6.0733 12.0897 20.2788
451 1 1 0 1 -8.90493 12.9768 13.1371
452 1 1 0 1 -6.63652 19.5447 21.05
453 1 1 0 1 -4.51872 16.3418 15.1865
454 1 1 0 1 1.39561 22.0974 13.0264
455 1 1 0 1 -2.59239 3.56677 1.06715
456 1 1 0 1 -4.35084 19.789 14.7983
457 1 1 0 1 -5.4091 18.9809 19.3935
458 1 1 0 1 -10.4933 15.7538 15.7704
459 1 1 0 1 -10.5949 17.262 16.2669
460 1 1 0 1 -3.11379 17.1787 19.7347
461 1 1 0 1 1.14283 17.578 12.5275
462 1 1 0 1 7.61013 22.7659 19.7352
463 1 1 0 1 -0.293863 19.8277 -0.970633
464 1 1 0 1 -4.69647 22.4933 10.0756
465 1 1 0 1 7.52655 25.618 0.752348
466 1 1 0 1 -0.366275 27.9861 -0.404858
467 1 1 0 1 -6.71343 19.5642 12.2861
468 1 1 0 1 -2.66471 22.7077 4.40575
469 1 1 0 1 0.654145 16.3524 15.7265
470 1 1 0 1 -0.526919 20.4099 11.6803
471 1 1 0 1 -2.10889 6.04838 5.63392
472 1 1 0 1 5.00246 31.7879 15.4578
473 1 1 0 1 -6.80926 17.72 10.8812
474 1 1 0 1 0.371257 13.0502 13.2276
475 1 1 0 1 1.13037 18.3291 15.7636
476 1 1 0 1 4.82071 29.2986 20.7265
477 1 1 0 1 2.05941 22.3794 14.1187
478 1 1 0 1 4.96598 24.5663 17.6452
479 1 1 0 1 -5.43371 32.5657 7.0261
480 1 1 0 1 2.24665 20.011 17.2518
481 1 1 0 1 0.326356 20.4391 16.5528
482 1 1 0 1 -3.14418 31.6224 16.5228
483 1 1 0 1 5.13367 18.7423 25.2588
484 1 1 0 1 -2.70687 18.9857 21.6093
485 1 1 0 1 -4.01415 -9.71031 1.77561
486 1 1 0 1 -3.30066 8.69018 -6.14765
487 1 1 0 1 -1.86296 0.295723 2.30764
488 1 1 0 1 -5.17541 -2.19725 5.09723
489 1 1 0 1 1.81677 2.34241 -4.24775
490 1 1 0 1 -8.77732 -1.97646 7.12113
491 1 1 0 1 -4.9511 4.45164 2.59866
492 1 1 0 1 -2.1208 -11.4583 11.6097
493 1 1 0 1 3.03178 -0.00702545 11.7316
494 1 1 0 1 -7.09655 1.03387 7.09915
495 1 1 0 1 -5.66247 0.0508664 18.754
496 1 1 0 1 3.39163 5.90824 18.6885
497 1 1 0 1 -0.409728 -7.55641 15.9326
498 1 1 0 1 0.623262 7.18721 9.35909
499 1 1 0 1 -0.181321 8.35312 7.11448
500 1 1 0 1 -4.45853 -4.56808 11.6127
501 1 1 0 1 2.21121 0.232585 9.27744
502 1 1 0 1 -0.33559 -10.1064 19.7328
503 1 1 0 1 -0.825676 6.91355 12.1597
504 1 1 0 1 0.591058 -3.82088 10.3217
505 1 1 0 1 -2.28352 -3.83335 12.6131
506 1 1 0 1 -1.81672 7.19943 15.463
507 1 1 0 1 2.34388 4.44057 -3.84624
508 1 1 0 1 -1.46167 4.42512 1.28958
509 1 1 0 1 -4.72233 5.55398 2.48709
510 1 1 0 1 -13.4404 -7.50735 -3.10401
511 1 1 0 1 6.4266 1.56167 7.52111
512 1 1 0 1 -3.91304 16.3797 7.1424
513 1 1 0 1 -4.43262 0.425895 8.29576
514 1 1 0 1 -2.65888 -0.642759 1.85937
515 1 1 0 1 6.78362 7.65322 0.152187
516 1 1 0 1 -4.61058 9.80108 7.26446
517 1 1 0 1 -1.27337 0.167402 7.12358
518 1 1 0 1 0.447685 3.59134 5.56584
519 1 1 0 1 3.91651 -0.989614 17.5381
520 1 1 0 1 -0.912483 -2.6354 8.6908
521 1 1 0 1 -3.22211 6.26536 9.01028
522 1 1 0 1 -4.53123 6.40999 10.4207
523 1 1 0 1 1.94021 1.09777 15.5661
524 1 1 0 1 -0.682208 3.36018 13.975
525 1 1 0 1 -1.85631 3.22415 26.0766
526 1 1 0 1 -1.1759 -5.16914 26.9651
527 1 1 0 1 -2.6613 8.7206 20.429
528 1 1 0 1 3.54126 2.77625 25.1323
529 1 1 0 1 7.34681 14.6592 8.57386
530 1 1 0 1 3.24262 -1.46261 -5.92582
531 1 1 0 1 5.92851 11.6364 -1.6256
532 1 1 0 1 -0.340294 -7.43052 4.37235
533 1 1 0 1 -2.6337 5.83563 -4.28431
534 1 1 0 1 -0.527212 0.0134885 3.32154
535 1 1 0 1 1.31836 6.91477 -0.884383
536 1 1 0 1 -6.46124 13.6324 0.625306
537 1 1 0 1 3.54628 3.18804 9.50276
538 1 1 0 1 -3.00338 -0.980709 13.027
539 1 1 0 1 0.481996 6.5905 6.69559
540 1 1 0 1 1.9447 7.21036 9.22001
541 1 1 0 1 -5.9019 7.363 9.77945
542 1 1 0 1 -2.15712 8.36859 8.50428
543 1 1 0 1 -3.6796 7.0792 3.15887
544 1 1 0 1 -1.6323 5.33608 6.077
545 1 1 0 1 2.61222 9.59801 13.1011
546 1 1 0 1 -0.808326 -2.41744 12.8738
547 1 1 0 1 -1.00924 -1.82005 18.1071
548 1 1 0 1 1.99162 6.95993 27.2878
549 1 1 0 1 1.53195 3.84215 26.9478
550 1 1 0 1 -4.96956 8.70235 22.541
551 1 1 0 1 -3.19705 6.84702 -6.72344
552 1 1 0 1 -6.37107 2.21924 -4.27117
553 1 1 0 1 -1.33743 6.57711 0.919882
554 1 1 0 1 2.18326 5.78552 -0.9088
555 1 1 0 1 -1.88191 4.31704 -7.67835
556 1 1 0 1 -1.8286 0.462317 3.66679
557 1 1 0 1 2.77525 11.9717 1.09874
558 1 1 0 1 2.1842 4.17402 6.32163
559 1 1 0 1 1.33084 -2.2722 11.8676
560 1 1 0 1 -3.46065 -3.83896 0.28741
561 1 1 0 1 1.07127 4.98961 14.6884
562 1 1 0 1 4.23535 6.45424 21.455
563 1 1 0 1 -1.47847 0.533257 19.3976
564 1 1 0 1 -7.75846 -3.55897 10.1233
565 1 1 0 1 9.68534 7.66141 17.678
566 1 1 0 1 3.89642 4.95594 11.1385
567 1 1 0 1 -3.14659 5.75607 16.7269
568 1 1 0 1 6.22148 7.81663 13.1658
569 1 1 0 1 5.42408 4.54789 18.3038
570 1 1 0 1 -4.13165 8.55546 27.6059
571 1 1 0 1 6.07985 7.68294 20.8065
572 1 1 0 1 0.910464 0.715229 22.0319
573 1 1 0 1 -0.141706 4.28789 -3.97691
574 1 1 0 1 -4.63954 1.87075 3.6375
575 1 1 0 1 -6.11071 0.723411 -7.9814
576 1 1 0 1 0.588644 6.16002 -0.912259
577 1 1 0 1 -6.2561 -2.17627 5.89151
578 1 1 0 1 -1.15743 10.3618 9.92678
579 1 1 0 1 -6.87509 3.54784 2.791
580 1 1 0 1 -2.68637 0.98031 10.4893
581 1 1 0 1 -2.08864 8.46986 9.75868
582 1 1 0 1 -0.508074 6.92506 6.98257
583 1 1 0 1 -9.78815 10.9053 11.4853
584 1 1 0 1 -4.97923 7.42049 16.6176
585 1 1 0 1 -6.5058 1.41641 12.1077
586 1 1 0 1 1.89404 12.7375 18.7135
587 1 1 0 1 -5.21471 18.4827 13.073
588 1 1 0 1 -7.46788 3.05213 19.5217
589 1 1 0 1 -5.01759 2.505 13.7495
590 1 1 0 1 -7.21884 4.6058 13.7385
591 1 1 0 1 -7.04833 2.45515 10.1188
592 1 1 0 1 -2.71687 -0.347049 16.7219
593 1 1 0 1 -1.89155 6.37951 14.7199
594 1 1 0 1 -9.07711 -2.8202 22.1471
595 1 1 0 1 -0.494026 -1.46042 -3.1091
596 1 1 0 1 -2.25964 10.4451 2.60874
597 1 1 0 1 -6.84173 2.12985 4.03228
598 1 1 0 1 1.73727 9.34967 -0.890166
599 1 1 0 1 -2.96985 10.3454 -1.23106
600 1 1 0 1 -0.00923895 4.29774 6.3166
601 1 1 0 1 -7.01378 6.47997 3.20134
602 1 1 0 1 -3.5018 -6.021 5.46028
603 1 1 0 1 2.52183 -5.72241 18.6608
604 1 1 0 1 11.7386 8.2274 17.2506
605 1 1 0 1 -5.88426 7.88894 3.90586
606 1 1 0 1 -5.7996 -1.7814 15.7946
607 1 1 0 1 -5.73543 4.13548 6.14103
608 1 1 0 1 0.365608 -5.44302 12.3287
609 1 1 0 1 3.00351 8.57095 12.7954
610 1 1 0 1 1.38684 10.0374 10.5547
611 1 1 0 1 -1.86388 5.42089 7.1756
612 1 1 0 1 0.339771 4.59343 22.7368
613 1 1 0 1 1.82292 5.10317 17.5229
614 1 1 0 1 -0.416219 10.024 24.0679
615 1 1 0 1 -11.8738 3.98911 19.3109
616 1 1 0 1 -4.19576 9.82901 15.2633
617 1 1 0 1 -0.825097 0.210689 -3.58655
618 1 1 0 1 -10.8487 7.30282 2.68018
619 1 1 0 1 3.00497 18.3471 4.87245
620 1 1 0 1 2.61995 9.85124 6.14544
621 1 1 0 1 -2.30392 4.49117 4.82977
622 1 1 0 1 -8.42143 1.70556 1.20319
623 1 1 0 1 0.625538 4.51112 3.455
624 1 1 0 1 -3.461 3.13663 1.93302
625 1 1 0 1 -2.67729 1.80113 4.72754
626 1 1 0 1 1.02268 3.90391 6.34351
627 1 1 0 1 -6.94649 -4.78594 17.2717
628 1 1 0 1 5.10455 -3.98573 8.08057
629 1 1 0 1 3.28107 10.2936 21.9472
630 1 1 0 1 2.83108 11.1004 18.9889
631 1 1 0 1 2.89235 7.93611 13.6389
632 1 1 0 1 7.13704 8.87365 16.8186
633 1 1 0 1 -6.91176 9.45797 13.6082
634 1 1 0 1 -0.890586 3.52046 15.7947
635 1 1 0 1 1.32079 3.94023 19.0159
636 1 1 0 1 0.716385 1.98697 16.0689
637 1 1 0 1 -10.2684 5.39445 19.6256
638 1 1 0 1 1.62931 5.86555 22.0814
639 1 1 0 1 -3.94651 -2.51112 10.1708
640 1 1 0 1 -1.64149 14.7312 10.3037
641 1 1 0 1 9.91021 6.53408 -3.26614
642 1 1 0 1 2.08139 16.2994 12.5117
643 1 1 0 1 0.707951 12.9248 16.3494
644 1 1 0 1 -4.45188 6.63964 -0.627111
645 1 1 0 1 -1.10781 4.22931 4.3026
646 1 1 0 1 3.54556 6.16903 6.08196
647 1 1 0 1 -5.52388 10.4122 -3.21962
648 1 1 0 1 -2.96984 11.1966 12.0263
649 1 1 0 1 -0.101646 5.10364 4.11924
650 1 1 0 1 3.93678 5.35826 13.1002
651 1 1 0 1 -0.364273 12.3528 8.95632
652 1 1 0 1 -2.74288 14.4842 18.4979
653 1 1 0 1 -3.28509 17.0069 12.195
654 1 1 0 1 -0.619018 9.09847 19.4796
655 1 1 0 1 0.896642 5.61 3.45786
656 1 1 0 1 -3.27511 4.66431 11.7526
657 1 1 0 1 3.36434 8.73929 15.8426
658 1 1 0 1 0.0983999 9.86192 23.0599
659 1 1 0 1 -5.49136 7.69133 12.7202
660 1 1 0 1 5.36473 7.37272 19.4868
661 1 1 0 1 -1.64701 7.57232 2.71637
662 1 1 0 1 -0.499524 11.5312 1.33974
663 1 1 0 1 -2.51965 7.11192 0.949266
664 1 1 0 1 -2.40849 9.89917 5.11753
665 1 1 0 1 -10.576 1.6056 6.10678
666 1 1 0 1 8.97907 10.7403 9.03276
667 1 1 0 1 -6.1951 5.79412 -3.31245
668 1 1 0 1 -8.45671 3.82086 3.11496
669 1 1 0 1 7.17665 3.47786 3.103
670 1 1 0 1 -4.3764 4.45274 8.50198
671 1 1 0 1 4.52823 1.3363 4.65034
672 1 1 0 1 -1.52783 17.2294 15.8049
673 1 1 0 1 -7.09481 16.4199 13.0689
674 1 1 0 1 -0.167735 13.4726 16.9207
675 1 1 0 1 -1.73062 9.56109 19.191
676 1 1 0 1 -2.65582 0.282129 15.8238
677 1 1 0 1 -0.243846 5.26872 18.5099
678 1 1 0 1 3.36623 7.364 19.7501
679 1 1 0 1 -10.3028 9.13344 15.1034
680 1 1 0 1 -0.685673 2.20964 14.4345
681 1 1 0 1 -3.42097 8.10699 20.2475
682 1 1 0 1 7.41963 9.88264 26.6399
683 1 1 0 1 -4.15979 12.2477 3.06331
684 1 1 0 1 -5.51106 6.64698 -0.987873
685 1 1 0 1 0.521277 10.1458 3.02672
686 1 1 0 1 -2.29831 4.84911 3.58178
687 1 1 0 1 1.47299 13.846 1.84312
688 1 1 0 1 -1.25512 12.2248 13.6287
689 1 1 0 1 -2.27927 2.62557 5.36345
690 1 1 0 1 3.35995 1.47789 13.3951
691 1 1 0 1 0.0903579 5.44252 2.82845
692 1 1 0 1 -5.36551 8.80897 10.0339
693 1 1 0 1 -3.27802 4.99166 18.7824
694 1 1 0 1 -9.78626 10.3811 12.624
695 1 1 0 1 -2.73465 11.99 15.2051
696 1 1 0 1 -6.23871 4.3395 20.574
697 1 1 0 1 -1.52605 7.81211 18.9433
698 1 1 0 1 -5.85042 9.59893 14.1017
699 1 1 0 1 5.70599 7.57441 22.18
700 1 1 0 1 2.77052 12.014 20.7543
701 1 1 0 1 -3.27352 11.3499 20.6137
702 1 1 0 1 -4.22622 8.67435 20.8939
703 1 1 0 1 -4.33748 13.8759 18.9805
704 1 1 0 1 5.21352 22.5064 17.7607
705 1 1 0 1 -1.43621 7.27723 3.78355
706 1 1 0 1 -1.85004 9.28948 -7.76653
707 1 1 0 1 -1.42404 27.6908 -0.104485
708 1 1 0 1 3.48846 6.59487 3.53647
709 1 1 0 1 -10.1233 13.9222 5.77161
710 1 1 0 1 -3.99176 10.9437 -0.785088
711 1 1 0 1 -5.37964 8.85961 4.21529
712 1 1 0 1 -1.18631 13.1709 14.6939
713 1 1 0 1 -0.363835 8.12432 4.11462
714 1 1 0 1 -2.95884 16.476 -0.645569
715 1 1 0 1 -4.38204 11.464 14.0816
716 1 1 0 1 -3.40942 16.3933 17.9498
717 1 1 0 1 -3.10661 13.8065 17.6425
718 1 1 0 1 -1.52082 6.32152 12.9408
719 1 1 0 1 -3.63146 8.52003 14.5545
720 1 1 0 1 -4.17513 12.7056 22.7934
721 1 1 0 1 -6.63192 13.4801 13.8584
722 1 1 0 1 4.61344 20.1089 27.0207
723 1 1 0 1 -4.67666 11.0873 17.8375
724 1 1 0 1 -1.25019 18.2155 21.6964
725 1 1 0 1 0.287544 13.6063 26.4366
726 1 1 0 1 -10.0543 16.6565 18.6929
727 1 1 0 1 4.57966 15.6547 1.52543
728 1 1 0 1 -1.62106 18.3201 -4.43363
729 1 1 0 1 -2.81846 3.31566 -7.04652
730 1 1 0 1 -2.29794 17.8538 8.00155
731 1 1 0 1 -0.388633 18.5031 4.96304
732 1 1 0 1 7.86303 12.0221 6.40838
733 1 1 0 1 -5.99456 9.77047 4.46952
734 1 1 0 1 2.17847 4.34645 1.07633
735 1 1 0 1 -7.10228 15.117 4.25783
736 1 1 0 1 -5.61259 18.0004 -2.1294
737 1 1 0 1 -0.145826 9.92218 17.2186
738 1 1 0 1 9.25066 15.9047 7.98588
739 1 1 0 1 -5.55095 5.50867 16.7233
740 1 1 0 1 -1.02346 10.4322 18.583
741 1 1 0 1 -2.78323 10.3477 19.3993
742 1 1 0 1 3.53522 9.57366 24.5679
743 1 1 0 1 -3.61221 9.38087 20.2467
744 1 1 0 1 5.15225 14.2814 26.5112
745 1 1 0 1 -2.32709 11.1433 19.8535
746 1 1 0 1 -2.3689 14.8687 21.7376
747 1 1 0 1 3.81197 11.0367 24.5975
748 1 1 0 1 3.99818 11.621 34.9637
749 1 1 0 1 2.83356 10.9448 1.66415
750 1 1 0 1 -0.145766 12.0814 12.0559
751 1 1 0 1 -13.7507 12.9209 10.1376
752 1 1 0 1 -5.53488 16.7104 11.5749
753 1 1 0 1 -4.60322 12.402 10.8973
754 1 1 0 1 6.37048 10.7021 2.98327
755 1 1 0 1 1.33473 17.7446 1.88902
756 1 1 0 1 -7.91835 24.9848 2.32195
757 1 1 0 1 -4.90755 12.1465 12.0179
758 1 1 0 1 -7.54714 21.0777 10.6711
759 1 1 0 1 -3.93286 12.4742 4.84281
760 1 1 0 1 -0.269507 3.51583 16.7638
761 1 1 0 1 -6.18017 14.9119 17.5633
762 1 1 0 1 -9.13356 13.2355 11.1581
763 1 1 0 1 6.12425 19.3391 10.0312
764 1 1 0 1 -2.53445 18.9304 14.2593
765 1 1 0 1 2.38065 12.8826 21.1565
766 1 1 0 1 -4.51316 15.5013 14.496
767 1 1 0 1 -12.5742 15.5412 19.7055
768 1 1 0 1 -6.23728 17.3259 23.0969
769 1 1 0 1 7.34139 8.9623 23.7547
770 1 1 0 1 -0.170805 16.4482 25.3553
771 1 1 0 1 -4.49506 11.4605 2.28809
772 1 1 0 1 -1.45527 14.3332 12.9171
773 1 1 0 1 -2.82001 12.4086 2.50147
774 1 1 0 1 -3.77051 7.24408 12.9244
775 1 1 0 1 -6.04852 12.6507 -4.64926
776 1 1 0 1 -0.907257 9.37089 10.3758
777 1 1 0 1 -0.78477 15.6299 11.7985
778 1 1 0 1 -2.14491 13.6835 12.4946
779 1 1 0 1 0.121654 14.3215 21.9035
780 1 1 0 1 -1.72274 18.7953 8.27984
781 1 1 0 1 4.06007 19.4932 19.1174
782 1 1 0 1 -0.541576 18.8541 13.9287
783 1 1 0 1 -2.74584 14.6211 6.14392
784 1 1 0 1 -7.30976 15.8714 23.3263
785 1 1 0 1 -6.5577 25.8551 15.8522
786 1 1 0 1 -6.32472 10.7822 16.641
787 1 1 0 1 4.01459 10.1877 23.8874
788 1 1 0 1 -11.1883 18.1539 13.8418
789 1 1 0 1 -4.25049 17.5499 18.476
790 1 1 0 1 -5.82721 13.9048 23.4139
791 1 1 0 1 -7.21141 14.0646 18.9823
792 1 1 0 1 -6.81212 9.66764 20.0877
793 1 1 0 1 -8.00252 20.1263 5.14515
794 1 1 0 1 -3.10418 16.7354 4.98257
795 1 1 0 1 4.28862 23.9816 -4.92778
796 1 1 0 1 1.17448 14.1937 10.4599
797 1 1 0 1 -4.13156 23.0903 -0.355418
798 1 1 0 1 2.62193 10.958 -0.576126
799 1 1 0 1 -2.39631 12.8663 5.68863
800 1 1 0 1 4.0829 7.60404 -0.36652
801 1 1 0 1 7.45046 13.8297 9.3246
802 1 1 0 1 -3.02268 19.557 9.71407
803 1 1 0 1 0.284333 11.5016 20.487
804 1 1 0 1 -1.8583 16.4671 12.4895
805 1 1 0 1 -6.07566 14.2038 18.499
806 1 1 0 1 -5.23484 2.3082 2.01589
807 1 1 0 1 0.32999 19.2029 14.6265
808 1 1 0 1 -2.30288 17.3136 11.9744
809 1 1 0 1 -3.11328 15.6908 12.5518
810 1 1 0 1 -0.346414 16.5122 20.7611