ITEM: TIMESTEP
21000
ITEM: NUMBER OF ATOMS
6752
ITEM: BOX BOUNDS pp pp pp
0.0000000000000000e+00 2.2000000000000000e+01
0.0000000000000000e+00 2.2000000000000000e+01
0.0000000000000000e+00 2.2000000000000000e+01
ITEM: ATOMS id mol type q mass xu yu zu
1 1 1 0 1 -1.32939 -9.09134 3.00685
2 1 1 0 1 -0.868202 4.72757 -0.176441
3 1 1 0 1 -4.53694 -0.851911 4.70055
4 1 1 0 1 -11.1575 -3.26617 6.45025
5 1 1 0 1 3.20634 6.9173 1.46397
6 1 1 0 1 -11.575 -2.03261 6.94047
7 1 1 0 1 5.36037 7.03194 6.18488
8 1 1 0 1 4.0699 -3.03853 13.5852
9 1 1 0 1 0.71366 2.63916 10.8844
10 1 1 0 1 -6.37197 -2.5247 10.7267
11 1 1 0 1 -1.59076 1.10647 5.44674
12 1 1 0 1 -5.77019 -3.16832 17.2302
13 1 1 0 1 4.29424 5.6205 13.316
14 1 1 0 1 -1.59571 12.803 9.58781
15 1 1 0 1 -7.85598 -0.636289 10.4616
16 1 1 0 1 -5.02313 -6.34353 13.9257
17 1 1 0 1 -1.53412 -2.33209 13.8475
18 1 1 0 1 -4.93593 -8.92748 20.4135
19 1 1 0 1 -2.75163 6.19289 17.3172
20 1 1 0 1 -3.65696 2.26229 19.2051
21 1 1 0 1 -6.41026 5.71043 14.1029
22 1 1 0 1 -1.78297 9.596 18.9202
23 1 1 0 1 -8.50786 -1.38153 3.78456
24 1 1 0 1 -4.92919 3.18456 -2.50006
25 1 1 0 1 -1.29248 -0.655032 -8.45928
26 1 1 0 1 0.513845 -3.86809 6.66744
27 1 1 0 1 -7.50618 -1.42792 11.2697
28 1 1 0 1 -2.11575 3.8238 1.29082
29 1 1 0 1 -3.59542 -1.44242 15.4203
30 1 1 0 1 -2.69535 -0.74113 15.407
31 1 1 0 1 -4.05145 8.3454 9.98155
32 1 1 0 1 -4.04525 -4.5018 2.05827
33 1 1 0 1 -8.2015 1.65806 10.3807
34 1 1 0 1 -3.96127 2.81188 15.3706
35 1 1 0 1 -3.52072 2.84028 12.8993
36 1 1 0 1 1.86777 1.056 3.97814
37 1 1 0 1 -4.31484 -0.741692 14.9766
38 1 1 0 1 3.22942 1.30277 23.4183
39 1 1 0 1 1.91791 5.66682 10.3593
40 1 1 0 1 -0.864297 5.57439 18.7991
41 1 1 0 1 -5.73505 -2.26468 14.2351
42 1 1 0 1 -4.71446 2.443 25.2321
43 1 1 0 1 -0.0924086 9.20467 21.2617
44 1 1 0 1 -3.73244 9.01143 16.6883
45 1 1 0 1 -8.26994 3.50019 4.59109
46 1 1 0 1 -1.64131 3.16627 10.9038
47 1 1 0 1 -0.320059 0.464223 -1.99459
48 1 1 0 1 -10.3647 9.65676 3.09977
49 1 1 0 1 -3.12604 4.46725 -0.609133
50 1 1 0 1 -4.33472 2.99783 -0.384093
51 1 1 0 1 -1.40467 3.12024 1.64385
52 1 1 0 1 0.772683 0.82408 12.7665
53 1 1 0 1 -3.94281 -2.0582 3.68293
54 1 1 0 1 -5.12818 -0.49961 17.9454
55 1 1 0 1 -6.07386 2.20797 10.8305
56 1 1 0 1 -0.736963 3.10907 8.94848
57 1 1 0 1 -0.919002 12.286 16.701
58 1 1 0 1 -5.97957 12.5236 11.924
59 1 1 0 1 -6.66017 3.85804 10.1915
60 1 1 0 1 0.581651 2.61812 19.6557
61 1 1 0 1 -5.58838 8.86059 11.9547
62 1 1 0 1 4.06418 1.75495 22.884
63 1 1 0 1 0.0917101 8.08443 5.11213
64 1 1 0 1 0.810443 -2.60554 15.1204
65 1 1 0 1 -9.99568 1.6638 17.6324
66 1 1 0 1 -6.13011 4.14194 23.161
67 1 1 0 1 -3.56106 -1.8361 -2.29612
68 1 1 0 1 -8.7262 4.54367 -4.29988
69 1 1 0 1 -3.631 6.55095 0.89686
70 1 1 0 1 1.88098 12.042 3.50427
71 1 1 0 1 0.158829 0.587219 5.85245
72 1 1 0 1 -12.5783 1.70473 0.698528
73 1 1 0 1 1.8945 2.83255 8.70468
74 1 1 0 1 -4.3844 3.38076 14.5854
75 1 1 0 1 -0.287398 2.92404 11.2064
76 1 1 0 1 -3.32237 -0.822562 10.1429
77 1 1 0 1 -4.69722 -2.85764 6.11694
78 1 1 0 1 -0.692684 5.75798 12.0679
79 1 1 0 1 -4.67304 2.01584 13.6162
80 1 1 0 1 1.59282 -2.02552 14.8309
81 1 1 0 1 -2.77351 9.61276 20.8666
82 1 1 0 1 -3.36183 -2.56402 9.04478
83 1 1 0 1 -5.09196 1.27532 18.445
84 1 1 0 1 4.45753 4.11946 16.1412
85 1 1 0 1 -7.99336 -1.81736 23.7887
86 1 1 0 1 -4.2509 -1.11064 22.8119
87 1 1 0 1 0.306388 2.36084 20.7071
88 1 1 0 1 -1.98168 7.89905 21.6018
89 1 1 0 1 -1.69443 10.4345 1.6864
90 1 1 0 1 -0.366779 11.3758 7.95936
91 1 1 0 1 -3.54345 0.232406 7.45132
92 1 1 0 1 -4.42686 7.82614 4.87156
93 1 1 0 1 1.02793 8.59501 7.17028
94 1 1 0 1 -1.61286 -4.13901 3.4156
95 1 1 0 1 -4.46826 9.54975 8.61467
96 1 1 0 1 -0.103217 5.23904 7.89284
97 1 1 0 1 -4.32523 13.3086 13.9645
98 1 1 0 1 -0.753692 7.30917 5.45569
99 1 1 0 1 -4.6847 5.98365 8.08404
100 1 1 0 1 -0.351279 1.33312 4.05406
101 1 1 0 1 -6.37957 4.67129 8.18826
102 1 1 0 1 -5.63064 5.12913 11.211
103 1 1 0 1 -3.03397 8.92225 10.911
104 1 1 0 1 -3.26867 13.3935 13.1721
105 1 1 0 1 -3.46837 6.1172 4.56597
106 1 1 0 1 3.03212 3.44978 21.6364
107 1 1 0 1 -5.48303 7.79171 15.69
108 1 1 0 1 -2.27382 6.85808 14.2306
109 1 1 0 1 -7.39814 3.46502 21.9682
110 1 1 0 1 -7.78079 7.01621 23.1873
111 1 1 0 1 -4.42265 4.7619 3.83776
112 1 1 0 1 -4.743 8.29595 -2.82755
113 1 1 0 1 -1.98334 10.2436 14.0096
114 1 1 0 1 -0.604515 9.22955 5.0084
115 1 1 0 1 -5.21713 10.6764 3.9739
116 1 1 0 1 -3.19533 15.2152 7.12762
117 1 1 0 1 -3.54087 6.69845 3.05606
118 1 1 0 1 -2.25397 4.6929 8.90749
119 1 1 0 1 -4.20324 5.77476 8.98033
120 1 1 0 1 -3.74242 3.03157 11.8408
121 1 1 0 1 0.672654 1.27426 5.29971
122 1 1 0 1 -0.745857 6.88139 9.31684
123 1 1 0 1 -4.60506 4.75758 12.5124
124 1 1 0 1 -5.73972 8.83552 15.67
125 1 1 0 1 -9.75221 9.77052 7.38035
126 1 1 0 1 -7.46838 5.01618 19.1759
127 1 1 0 1 -1.63433 8.76858 17.8776
128 1 1 0 1 -8.23949 10.1841 12.0126
129 1 1 0 1 -2.40199 6.40873 24.4631
130 1 1 0 1 -7.97352 7.58515 15.3521
131 1 1 0 1 -8.35816 1.10023 9.44653
132 1 1 0 1 -5.4216 4.69581 27.1662
133 1 1 0 1 1.06814 6.57652 2.9803
134 1 1 0 1 -6.64393 4.42727 9.19694
135 1 1 0 1 -8.25569 1.70256 1.37524
136 1 1 0 1 -2.27126 10.2131 2.61013
137 1 1 0 1 -9.64908 4.18322 9.33597
138 1 1 0 1 -7.38619 8.4322 11.8699
139 1 1 0 1 2.10887 6.11737 3.57521
140 1 1 0 1 -7.26147 5.89509 3.63377
141 1 1 0 1 3.35831 4.95803 2.54717
142 1 1 0 1 -5.51041 5.35909 9.28403
143 1 1 0 1 -2.67216 3.45902 12.1751
144 1 1 0 1 2.79216 2.78015 7.66832
145 1 1 0 1 -9.31191 6.33867 18.7275
146 1 1 0 1 -7.15676 10.9379 23.0399
147 1 1 0 1 -4.97371 18.9018 14.0765
148 1 1 0 1 -6.7574 14.1461 13.5182
149 1 1 0 1 -8.01416 6.31632 18.0507
150 1 1 0 1 -5.36417 10.0502 8.76894
151 1 1 0 1 -5.72811 2.33373 20.6645
152 1 1 0 1 -5.34689 3.33435 15.7013
153 1 1 0 1 -0.340968 8.05638 21.1841
154 1 1 0 1 -1.73288 2.29998 28.442
155 1 1 0 1 -0.927337 3.997 -2.0066
156 1 1 0 1 0.612595 6.3421 -1.95026
157 1 1 0 1 -2.69144 10.3524 4.7418
158 1 1 0 1 -3.31087 11.6716 3.09635
159 1 1 0 1 -6.19994 8.86727 -0.144815
160 1 1 0 1 -3.56375 4.33773 8.39352
161 1 1 0 1 -1.15383 14.062 5.77009
162 1 1 0 1 -3.61415 8.07207 11.4126
163 1 1 0 1 3.23818 7.13852 4.66073
164 1 1 0 1 -6.06714 6.28282 10.973
165 1 1 0 1 -1.14536 1.2543 13.4471
166 1 1 0 1 -3.05284 9.55895 18.3794
167 1 1 0 1 -4.44935 14.6189 19.0881
168 1 1 0 1 -8.4554 4.31897 20.8887
169 1 1 0 1 -4.93506 11.5116 15.598
170 1 1 0 1 2.27339 7.01064 21.7584
171 1 1 0 1 -2.38661 12.4973 24.7397
172 1 1 0 1 0.173832 9.68934 20.0019
173 1 1 0 1 -0.586438 10.3316 16.1979
174 1 1 0 1 5.69198 7.78705 25.1594
175 1 1 0 1 -5.87145 8.24543 19.2166
176 1 1 0 1 -0.971599 2.75666 26.5691
177 1 1 0 1 -7.74111 4.95931 1.31214
178 1 1 0 1 1.07961 16.7838 10.5928
179 1 1 0 1 -5.55693 14.9807 -1.16642
180 1 1 0 1 -0.48383 13.4503 1.40608
181 1 1 0 1 -5.72706 16.4763 3.65169
182 1 1 0 1 -5.05666 13.7363 4.50941
183 1 1 0 1 -6.5722 11.1377 7.00486
184 1 1 0 1 -4.57905 7.00722 7.60323
185 1 1 0 1 -8.99203 -1.89418 8.73773
186 1 1 0 1 -12.781 17.8545 6.13993
187 1 1 0 1 -8.51602 14.4805 12.135
188 1 1 0 1 -2.2953 1.36832 12.302
189 1 1 0 1 1.85807 10.1288 16.3408
190 1 1 0 1 -8.16277 6.30273 13.8902
191 1 1 0 1 -4.26198 8.63805 21.4973
192 1 1 0 1 -2.48954 7.64491 15.2119
193 1 1 0 1 -1.88333 5.61598 19.843
194 1 1 0 1 7.39659 11.4799 20.6705
195 1 1 0 1 -5.41594 7.15885 16.8341
196 1 1 0 1 1.04007 8.45455 19.4811
197 1 1 0 1 -4.08204 6.49207 18.4225
198 1 1 0 1 10.64 8.28637 24.4237
199 1 1 0 1 3.102 11.3994 1.909
200 1 1 0 1 4.53589 7.23977 7.70321
201 1 1 0 1 -5.64561 13.1649 -3.435
202 1 1 0 1 0.74799 5.30264 8.73123
203 1 1 0 1 -9.48257 13.1055 6.78696
204 1 1 0 1 -3.92699 8.16425 14.3468
205 1 1 0 1 -0.136005 4.50063 2.42519
206 1 1 0 1 1.69833 11.0968 5.588
207 1 1 0 1 -3.88581 9.29974 2.99667
208 1 1 0 1 -2.64428 5.30259 13.4565
209 1 1 0 1 -2.32161 0.178774 5.00898
210 1 1 0 1 -6.84793 8.43036 8.2229
211 1 1 0 1 -1.79046 7.17062 9.44439
212 1 1 0 1 -9.60659 7.90929 12.0274
213 1 1 0 1 1.62517 9.7187 24.5583
214 1 1 0 1 -14.9774 19.4429 17.6959
215 1 1 0 1 -5.96018 12.2671 16.637
216 1 1 0 1 -5.47605 9.27577 20.1089
217 1 1 0 1 -7.48758 14.7535 24.4669
218 1 1 0 1 -0.770418 9.15693 24.0259
219 1 1 0 1 5.12922 11.9449 25.899
220 1 1 0 1 4.86336 12.8567 21.6483
221 1 1 0 1 7.41532 10.0324 -5.69383
222 1 1 0 1 -7.35913 12.0986 0.726396
223 1 1 0 1 -7.71008 12.6825 2.15215
224 1 1 0 1 -6.60676 8.95252 -2.84518
225 1 1 0 1 -9.4317 17.4448 5.26318
226 1 1 0 1 -13.2419 11.2875 8.81817
227 1 1 0 1 -9.32345 13.5152 3.55523
228 1 1 0 1 -9.01516 16.2238 2.96216
229 1 1 0 1 0.276456 9.30252 8.01372
230 1 1 0 1 -0.850358 13.8634 7.99014
231 1 1 0 1 -6.01142 10.5662 12.3626
232 1 1 0 1 0.947376 2.09074 13.2353
233 1 1 0 1 -1.42372 13.2817 14.432
234 1 1 0 1 -10.5987 9.78848 10.0119
235 1 1 0 1 -5.49934 11.3784 17.0584
236 1 1 0 1 -8.10332 13.6676 15.4924
237 1 1 0 1 -10.9978 15.059 16.6865
238 1 1 0 1 -8.12407 12.179 14.1969
239 1 1 0 1 -7.59965 8.92666 16.3349
240 1 1 0 1 -5.97173 13.7447 12.6979
241 1 1 0 1 -5.50161 7.72685 18.2943
242 1 1 0 1 -2.82027 2.22814 21.8749
243 1 1 0 1 -0.483907 13.6243 0.145541
244 1 1 0 1 -4.60317 10.3872 1.96348
245 1 1 0 1 -3.66799 15.223 2.41088
246 1 1 0 1 -0.793506 12.4346 5.69017
247 1 1 0 1 -5.43936 10.6119 6.48045
248 1 1 0 1 -3.61679 -0.706783 7.96051
249 1 1 0 1 -10.8242 12.4673 8.63148
250 1 1 0 1 -2.56789 4.14567 7.86142
251 1 1 0 1 -5.86802 8.04702 5.75602
252 1 1 0 1 -0.692359 2.82111 5.59388
253 1 1 0 1 0.663204 0.527905 16.962
254 1 1 0 1 0.276692 13.9984 15.7759
255 1 1 0 1 -7.36456 3.23573 9.29842
256 1 1 0 1 -9.7874 19.7538 13.4857
257 1 1 0 1 0.589055 17.1178 17.0548
258 1 1 0 1 1.98135 13.0942 16.8475
259 1 1 0 1 -5.60144 11.939 21.4029
260 1 1 0 1 -1.42128 13.546 17.8777
261 1 1 0 1 -3.70073 8.70962 20.5306
262 1 1 0 1 -2.03926 10.3287 20.4839
263 1 1 0 1 2.76208 16.2008 21.0031
264 1 1 0 1 0.85392 16.0101 22.8406
265 1 1 0 1 -4.3031 10.787 0.256709
266 1 1 0 1 4.98579 14.8046 4.18767
267 1 1 0 1 -3.07727 16.34 9.36325
268 1 1 0 1 -2.29163 8.15471 -1.51767
269 1 1 0 1 -2.05151 10.4496 11.4703
270 1 1 0 1 0.0592248 14.0641 -0.74866
271 1 1 0 1 -5.6375 3.93223 9.61146
272 1 1 0 1 -8.66085 9.5238 14.0192
273 1 1 0 1 -3.85579 11.8582 6.91711
274 1 1 0 1 -10.796 8.20846 7.55695
275 1 1 0 1 -7.43673 4.11169 12.0402
276 1 1 0 1 -3.20173 13.8957 11.7843
277 1 1 0 1 -4.86711 7.74943 14.7179
278 1 1 0 1 -0.699807 15.9077 16.2004
279 1 1 0 1 -4.72622 16.2997 11.0038
280 1 1 0 1 -7.13311 14.1821 9.71893
281 1 1 0 1 1.15272 10.221 29.7274
282 1 1 0 1 -4.72451 12.6632 9.34853
283 1 1 0 1 -0.501381 14.5715 15.3173
284 1 1 0 1 -6.94932 13.3927 15.8418
285 1 1 0 1 -4.6589 5.9981 16.5237
286 1 1 0 1 -0.51979 12.0613 17.7231
287 1 1 0 1 -8.14529 20.8633 5.71517
288 1 1 0 1 -1.55503 14.7361 -1.32315
289 1 1 0 1 -8.57272 5.56087 7.08815
290 1 1 0 1 -1.4331 10.4856 6.99833
291 1 1 0 1 -9.24887 2.28876 9.39112
292 1 1 0 1 -7.53427 13.3814 10.2542
293 1 1 0 1 -0.350525 8.71597 6.41222
294 1 1 0 1 -0.419982 14.5666 8.53011
295 1 1 0 1 -2.93973 7.46502 9.4975
296 1 1 0 1 -1.21426 14.229 12.3082
297 1 1 0 1 -6.66011 9.72926 6.43057
298 1 1 0 1 -8.6238 2.51989 17.3914
299 1 1 0 1 -0.243291 19.0969 14.8037
300 1 1 0 1 0.967462 17.981 19.8392
301 1 1 0 1 -4.44887 15.8898 17.7717
302 1 1 0 1 -4.77628 13.7971 18.1879
303 1 1 0 1 -9.98906 16.0642 12.3503
304 1 1 0 1 -1.59498 9.99756 9.38371
305 1 1 0 1 6.36869 11.9063 20.2366
306 1 1 0 1 -0.76575 12.819 21.5024
307 1 1 0 1 1.82146 16.8447 19.2233
308 1 1 0 1 1.79045 25.7959 28.0084
309 1 1 0 1 1.92192 13.1792 3.07149
310 1 1 0 1 2.91002 14.9286 3.75147
311 1 1 0 1 -8.04575 13.4433 -1.6039
312 1 1 0 1 -8.87687 5.5828 2.81485
313 1 1 0 1 -9.08212 13.1858 2.25746
314 1 1 0 1 0.983576 10.9152 2.0577
315 1 1 0 1 2.07186 8.04163 8.61095
316 1 1 0 1 -8.74906 15.8248 6.31473
317 1 1 0 1 -3.41463 14.442 10.2235
318 1 1 0 1 -4.05505 15.4542 10.2769
319 1 1 0 1 -4.77417 11.3534 8.2527
320 1 1 0 1 2.84206 18.7154 7.58755
321 1 1 0 1 -6.78655 15.5513 14.2777
322 1 1 0 1 -0.404297 11.2256 16.7385
323 1 1 0 1 -3.13029 15.2982 9.4115
324 1 1 0 1 -1.96133 14.1836 6.62791
325 1 1 0 1 0.30405 10.4157 8.18717
326 1 1 0 1 -7.57103 14.6222 15.4754
327 1 1 0 1 -8.8607 12.3132 17.1798
328 1 1 0 1 -0.345443 16.6055 20.9764
329 1 1 0 1 1.58498 10.6022 24.9794
330 1 1 0 1 5.93367 14.0545 21.9459
331 1 1 0 1 -3.88829 14.5122 7.83601
332 1 1 0 1 -3.71149 18.3277 4.56208
333 1 1 0 1 -4.00083 9.62618 5.80307
334 1 1 0 1 -3.72836 16.645 2.69145
335 1 1 0 1 -0.217588 12.4942 9.97915
336 1 1 0 1 -6.12904 10.56 4.4731
337 1 1 0 1 -2.74231 12.9548 7.54279
338 1 1 0 1 -3.42105 10.4226 10.1851
339 1 1 0 1 -10.5288 10.9742 5.43134
340 1 1 0 1 -0.657247 10.7131 8.8241
341 1 1 0 1 -6.56986 6.94975 7.28184
342 1 1 0 1 -3.74084 17.6996 10.65
343 1 1 0 1 -2.81027 13.9898 7.52989
344 1 1 0 1 -6.25645 8.34757 11.2642
345 1 1 0 1 -7.11952 18.182 13.4091
346 1 1 0 1 2.49688 18.3854 18.0206
347 1 1 0 1 -1.26055 19.0375 17.9387
348 1 1 0 1 -2.30695 12.0573 20.4036
349 1 1 0 1 -1.91653 19.6267 15.8436
350 1 1 0 1 -2.01845 18.788 18.9834
351 1 1 0 1 -7.52282 21.5887 17.6415
352 1 1 0 1 -1.53733 18.5807 28.7259
353 1 1 0 1 -8.74673 19.5021 -2.38892
354 1 1 0 1 1.26624 20.1312 0.840715
355 1 1 0 1 -8.82571 8.52448 6.89966
356 1 1 0 1 -6.37739 9.00758 5.56026
357 1 1 0 1 -0.735174 13.9697 2.65915
358 1 1 0 1 -2.2331 16.0947 5.80793
359 1 1 0 1 -8.77505 14.2788 8.35423
360 1 1 0 1 -0.0264144 13.7013 7.33422
361 1 1 0 1 -2.61674 21.2983 11.9558
362 1 1 0 1 0.74171 11.6461 10.0599
363 1 1 0 1 1.93829 13.5068 11.1933
364 1 1 0 1 3.61947 13.2154 8.00743
365 1 1 0 1 -1.32045 5.68029 6.88486
366 1 1 0 1 -7.46556 16.7073 11.577
367 1 1 0 1 -0.95416 8.81564 13.2103
368 1 1 0 1 -4.11628 19.4629 18.0523
369 1 1 0 1 -5.1901 13.3371 12.0354
370 1 1 0 1 -1.8053 6.27077 8.34727
371 1 1 0 1 -6.94162 18.7392 25.233
372 1 1 0 1 -3.41636 14.8935 19.628
373 1 1 0 1 -5.27406 12.8151 17.4592
374 1 1 0 1 -2.0476 12.8866 28.538
375 1 1 0 1 -6.36306 5.33994 4.83156
376 1 1 0 1 -4.83682 14.8324 -0.28714
377 1 1 0 1 -8.30622 12.8599 0.244646
378 1 1 0 1 -8.29055 13.7271 5.70137
379 1 1 0 1 -0.175243 16.5559 -3.74039
380 1 1 0 1 -4.48356 14.1005 2.8032
381 1 1 0 1 -6.1509 18.1201 5.25129
382 1 1 0 1 -13.7557 16.1977 16.1363
383 1 1 0 1 -2.37155 18.9926 12.6979
384 1 1 0 1 0.967838 12.7721 13.9776
385 1 1 0 1 -4.73034 15.2584 8.01099
386 1 1 0 1 -4.09823 10.8864 11.6283
387 1 1 0 1 -6.43518 10.6798 17.2774
388 1 1 0 1 -3.62367 17.0954 19.489
389 1 1 0 1 -4.14487 17.6531 15.4312
390 1 1 0 1 -4.25038 15.7323 19.3507
391 1 1 0 1 -3.9924 20.8876 18.7577
392 1 1 0 1 -7.70792 16.3095 6.08812
393 1 1 0 1 -3.65647 11.6458 15.0457
394 1 1 0 1 -3.59286 18.8394 22.0967
395 1 1 0 1 -13.9054 12.9621 12.8391
396 1 1 0 1 0.573424 13.0671 25.3484
397 1 1 0 1 -1.92599 16.923 2.01795
398 1 1 0 1 -3.86205 25.9946 -0.00296488
399 1 1 0 1 -3.90668 14.0344 1.4073
400 1 1 0 1 -7.0454 8.78835 6.52961
401 1 1 0 1 0.4279 11.7824 12.8743
402 1 1 0 1 -3.99061 11.9951 11.2285
403 1 1 0 1 3.05387 15.326 12.5807
404 1 1 0 1 -5.30749 24.5735 5.21142
405 1 1 0 1 -10.23 14.1456 8.42586
406 1 1 0 1 -9.13047 16.7057 6.68069
407 1 1 0 1 -2.64563 15.5875 4.85602
408 1 1 0 1 -9.80502 16.7346 9.69816
409 1 1 0 1 -10.3049 11.6262 17.7308
410 1 1 0 1 -5.78122 4.82784 6.73708
411 1 1 0 1 3.67255 15.8109 10.0353
412 1 1 0 1 -11.5434 14.6262 4.70032
413 1 1 0 1 -7.22723 14.3548 17.0236
414 1 1 0 1 -6.88974 9.51331 19.9789
415 1 1 0 1 -2.13149 15.6015 25.8264
416 1 1 0 1 -3.29132 12.6995 28.6604
417 1 1 0 1 0.629653 18.7644 22.8403
418 1 1 0 1 1.77188 14.0953 25.7591
419 1 1 0 1 -7.62986 17.7873 5.37313
420 1 1 0 1 -2.77666 24.1431 15.3591
421 1 1 0 1 -7.47163 17.6142 4.15215
422 1 1 0 1 -1.56448 4.74089 4.22364
423 1 1 0 1 -0.690289 26.9882 10.0197
424 1 1 0 1 -2.1423 16.0753 9.64545
425 1 1 0 1 -3.17338 12.612 3.52015
426 1 1 0 1 -5.86612 22.3033 -4.40702
427 1 1 0 1 -3.98971 22.5658 8.52762
428 1 1 0 1 2.35616 18.1046 3.59044
429 1 1 0 1 -7.73751 24.5212 6.39626
430 1 1 0 1 -0.928858 18.0221 9.64072
431 1 1 0 1 -8.66175 14.3751 13.9891
432 1 1 0 1 -0.288449 25.8226 10.6749
433 1 1 0 1 -4.52201 19.0513 12.9967
434 1 1 0 1 -5.43832 5.05804 14.4036
435 1 1 0 1 -2.22813 10.266 22.7901
436 1 1 0 1 -7.71996 14.7573 13.687
437 1 1 0 1 -3.70915 18.5279 15.933
438 1 1 0 1 -5.81617 17.1693 18.0415
439 1 1 0 1 -2.97135 21.9045 21.7263
440 1 1 0 1 -2.05899 11.4405 22.2165
441 1 1 0 1 -4.81088 18.3282 -2.15115
442 1 1 0 1 -5.12895 23.7472 6.6151
443 1 1 0 1 -2.19832 16.4627 -1.07753
444 1 1 0 1 -2.77005 23.6179 -0.874203
445 1 1 0 1 -9.6908 15.6895 4.37742
446 1 1 0 1 1.34866 7.68271 9.62123
447 1 1 0 1 -1.52584 9.2351 6.86089
448 1 1 0 1 -9.72497 14.9138 10.1016
449 1 1 0 1 -1.89724 21.0477 11.0649
450 1 1 0 1 -3.89399 12.13 20.7447
451 1 1 0 1 -8.18353 15.5868 11.8529
452 1 1 0 1 -6.43587 18.1405 20.2544
453 1 1 0 1 -5.6078 17.8431 19.1775
454 1 1 0 1 3.72638 24.6341 16.5398
455 1 1 0 1 -3.27302 4.60479 7.0675
456 1 1 0 1 -2.67281 15.7721 13.609
457 1 1 0 1 -6.40224 22.2007 13.147
458 1 1 0 1 -12.5206 14.3023 13.677
459 1 1 0 1 -6.44991 14.652 15.4251
460 1 1 0 1 -2.18132 11.6513 19.3471
461 1 1 0 1 0.799294 22.1938 13.9775
462 1 1 0 1 3.54409 24.6684 22.3199
463 1 1 0 1 2.0707 24.2022 -6.87594
464 1 1 0 1 -1.27855 22.4755 9.3046
465 1 1 0 1 6.72788 24.8696 0.896501
466 1 1 0 1 3.491 31.1167 3.24245
467 1 1 0 1 -6.75329 19.1479 8.68172
468 1 1 0 1 -3.86751 20.4919 5.65154
469 1 1 0 1 -0.958149 15.9337 11.6821
470 1 1 0 1 -1.09933 22.331 10.3552
471 1 1 0 1 -5.08686 7.51173 6.59722
472 1 1 0 1 2.60903 29.4059 12.3931
473 1 1 0 1 -7.99071 18.3786 9.85238
474 1 1 0 1 1.46453 17.8599 11.3103
475 1 1 0 1 0.643654 17.8329 16.196
476 1 1 0 1 2.77512 26.5002 18.6577
477 1 1 0 1 1.06516 18.5237 15.6559
478 1 1 0 1 5.26259 24.0754 16.047
479 1 1 0 1 -6.46036 29.6509 13.8131
480 1 1 0 1 3.26836 20.4549 20.4405
481 1 1 0 1 -1.43293 18.6011 16.1843
482 1 1 0 1 -4.94346 31.5016 16.2275
483 1 1 0 1 -0.558668 19.5775 30.1197
484 1 1 0 1 -3.31986 19.5992 24.7894
485 1 1 0 1 -1.81367 -8.55881 1.44358
486 1 1 0 1 -0.142648 6.78212 -7.13533
487 1 1 0 1 -0.859549 3.88356 -0.848936
488 1 1 0 1 -1.66415 -1.26166 2.21776
489 1 1 0 1 -0.335196 3.20466 -4.04145
490 1 1 0 1 -8.517 -2.68425 4.38194
491 1 1 0 1 -5.75608 1.18555 5.75948
492 1 1 0 1 -2.98498 -9.51121 13.4459
493 1 1 0 1 0.229355 -2.73909 12.4987
494 1 1 0 1 -5.94637 -1.0203 4.61155
495 1 1 0 1 -8.4125 3.15398 14.3843
496 1 1 0 1 -3.12405 6.28022 18.5192
497 1 1 0 1 -2.92741 -8.35798 15.7525
498 1 1 0 1 0.128931 2.41964 14.715
499 1 1 0 1 -0.600691 6.882 10.4383
500 1 1 0 1 -5.16535 -4.57293 16.5689
501 1 1 0 1 -1.70519 -0.57944 10.0523
502 1 1 0 1 1.35372 -6.91733 18.2539
503 1 1 0 1 -4.00756 7.65805 15.4563
504 1 1 0 1 0.148931 -0.975362 9.85201
505 1 1 0 1 -6.05546 -1.11901 14.6092
506 1 1 0 1 -2.33499 3.94917 17.7589
507 1 1 0 1 -0.83783 5.01383 -1.92294
508 1 1 0 1 -2.06162 5.58325 0.931761
509 1 1 0 1 -2.66732 2.64357 3.2494
510 1 1 0 1 -5.94652 -4.04951 -0.767722
511 1 1 0 1 2.69377 1.18018 4.80675
512 1 1 0 1 -2.71505 11.8646 6.88723
513 1 1 0 1 -4.42963 -2.41703 7.41553
514 1 1 0 1 -2.11454 -1.46185 3.08048
515 1 1 0 1 9.66601 7.77253 1.82124
516 1 1 0 1 -5.50312 5.22208 12.1984
517 1 1 0 1 -4.9872 1.86828 8.47536
518 1 1 0 1 0.582697 2.85673 4.27513
519 1 1 0 1 2.76863 1.2678 16.3321
520 1 1 0 1 0.57465 -2.16127 10.1958
521 1 1 0 1 -1.38583 4.76554 13.7977
522 1 1 0 1 -6.24612 6.97006 9.26059
523 1 1 0 1 3.30004 -0.00160443 14.5897
524 1 1 0 1 -0.428432 2.11643 15.6374
525 1 1 0 1 -2.72641 1.60058 24.3756
526 1 1 0 1 0.296252 -5.53381 26.246
527 1 1 0 1 -1.37675 7.92558 20.8267
528 1 1 0 1 2.79573 2.26353 23.343
529 1 1 0 1 8.85485 9.57318 7.45254
530 1 1 0 1 1.36297 -1.49823 -4.9245
531 1 1 0 1 2.78946 10.1373 -3.96002
532 1 1 0 1 1.08719 -6.13151 3.08878
533 1 1 0 1 -5.35448 4.76735 -3.03054
534 1 1 0 1 -0.639494 0.217709 6.65935
535 1 1 0 1 3.94828 5.32979 0.37158
536 1 1 0 1 -1.49479 9.63851 2.88627
537 1 1 0 1 -0.377306 3.1633 7.92147
538 1 1 0 1 -3.19065 -2.64441 12.9409
539 1 1 0 1 -0.61255 5.67639 13.7348
540 1 1 0 1 0.744781 7.64014 10.4896
541 1 1 0 1 -4.99895 7.19394 11.2301
542 1 1 0 1 -6.72754 8.62317 13.8184
543 1 1 0 1 -5.3107 9.33534 7.952
544 1 1 0 1 1.09142 5.21662 9.95191
545 1 1 0 1 0.733082 6.25732 12.3557
546 1 1 0 1 -2.29461 -2.0408 13.1013
547 1 1 0 1 -0.36924 0.419029 18.6426
548 1 1 0 1 -0.903292 7.58556 28.9157
549 1 1 0 1 -0.408239 5.75419 27.8355
550 1 1 0 1 -4.90551 7.14529 22.5579
551 1 1 0 1 -0.636474 8.6304 -1.71416
552 1 1 0 1 -5.09287 4.92872 -4.54238
553 1 1 0 1 -0.0500912 8.19639 0.274443
554 1 1 0 1 0.338734 5.01621 -0.362815
555 1 1 0 1 0.783541 8.4375 -3.81163
556 1 1 0 1 -0.262117 3.03362 3.63723
557 1 1 0 1 2.11375 8.78366 2.0881
558 1 1 0 1 0.508426 2.649 7.34416
559 1 1 0 1 -0.661366 -0.531915 10.591
560 1 1 0 1 -4.945 -4.62357 3.09508
561 1 1 0 1 0.527708 2.64051 15.7747
562 1 1 0 1 2.44614 5.695 21.1332
563 1 1 0 1 -1.0027 3.06215 15.4762
564 1 1 0 1 -4.44805 -3.56655 7.84761
565 1 1 0 1 7.46259 4.70842 19.2097
566 1 1 0 1 2.84973 4.71702 13.5832
567 1 1 0 1 -2.32236 3.86054 19.132
568 1 1 0 1 5.04963 6.26981 14.8977
569 1 1 0 1 0.52108 7.06915 16.7055
570 1 1 0 1 -5.61579 3.87374 24.0852
571 1 1 0 1 6.77395 6.00057 18.8767
572 1 1 0 1 -0.294728 3.92951 22.2561
573 1 1 0 1 2.76355 6.80172 -2.70466
574 1 1 0 1 -2.23332 5.25614 6.05462
575 1 1 0 1 -5.46353 3.88356 -5.15521
576 1 1 0 1 -3.41564 6.8965 -0.364856
577 1 1 0 1 -5.53504 0.829851 4.68644
578 1 1 0 1 -5.90755 9.20534 13.9755
579 1 1 0 1 -4.19061 3.71852 4.89719
580 1 1 0 1 -2.76974 2.04913 10.9099
581 1 1 0 1 -3.19325 10.0957 11.2296
582 1 1 0 1 1.76714 4.33734 10.4745
583 1 1 0 1 -5.19576 9.80866 12.3549
584 1 1 0 1 -3.40175 7.22294 16.1845
585 1 1 0 1 -6.93044 1.05427 13.0804
586 1 1 0 1 -1.33401 16.9336 17.0701
587 1 1 0 1 -4.6208 13.9433 16.0646
588 1 1 0 1 -4.26871 1.57798 17.1411
589 1 1 0 1 -6.21447 6.49385 17.7541
590 1 1 0 1 -6.33493 4.92189 14.9352
591 1 1 0 1 -5.28591 3.79294 11.9833
592 1 1 0 1 -0.791363 -0.127068 20.832
593 1 1 0 1 0.873091 3.72322 15.0718
594 1 1 0 1 -7.60759 -2.46294 17.9199
595 1 1 0 1 0.0185203 5.20525 -4.74702
596 1 1 0 1 -0.331829 8.32945 4.01273
597 1 1 0 1 -7.24406 0.549311 4.8165
598 1 1 0 1 2.31874 7.7242 0.730156
599 1 1 0 1 3.0797 9.87095 0.791451
600 1 1 0 1 -1.90061 9.18041 4.99465
601 1 1 0 1 -6.86244 6.20679 4.56833
602 1 1 0 1 0.850467 -3.12203 3.54133
603 1 1 0 1 1.31837 -6.4667 14.3665
604 1 1 0 1 9.65524 7.79713 14.366
605 1 1 0 1 -0.585183 5.81414 10.7974
606 1 1 0 1 -8.14504 -1.31491 12.9963
607 1 1 0 1 -5.78139 6.64073 6.20316
608 1 1 0 1 1.67421 -4.69641 8.56182
609 1 1 0 1 5.25288 10.388 14.1055
610 1 1 0 1 1.7081 5.67047 12.8359
611 1 1 0 1 1.50766 5.71846 11.2776
612 1 1 0 1 3.23939 3.56113 22.8941
613 1 1 0 1 -0.591815 2.65905 16.7546
614 1 1 0 1 -4.22819 8.11171 25.3882
615 1 1 0 1 -8.61327 7.53621 20.2412
616 1 1 0 1 -6.31879 7.714 17.4813
617 1 1 0 1 1.20298 2.62581 -0.469769
618 1 1 0 1 -8.67333 5.26976 -0.719288
619 1 1 0 1 1.8397 19.0303 3.6894
620 1 1 0 1 3.30694 10.4988 8.16989
621 1 1 0 1 -3.00303 5.98366 5.61312
622 1 1 0 1 -8.07798 3.57842 2.76376
623 1 1 0 1 -4.15744 8.91716 5.08835
624 1 1 0 1 -2.16757 3.79017 4.89632
625 1 1 0 1 -2.47568 3.49996 5.94904
626 1 1 0 1 -0.411838 7.09666 12.1844
627 1 1 0 1 -9.15598 -1.87574 16.7242
628 1 1 0 1 3.39094 0.537839 5.80918
629 1 1 0 1 1.48825 12.1497 18.4751
630 1 1 0 1 2.30103 12.004 17.3552
631 1 1 0 1 -0.0350249 8.85344 12.7442
632 1 1 0 1 5.85595 8.29328 14.9325
633 1 1 0 1 -11.8884 10.2415 14.5816
634 1 1 0 1 -1.06135 5.10194 14.7362
635 1 1 0 1 2.38322 4.18179 17.5221
636 1 1 0 1 0.998947 4.35308 17.5678
637 1 1 0 1 -6.73893 3.54415 20.4104
638 1 1 0 1 -2.79814 5.32299 21.9219
639 1 1 0 1 -3.34833 -1.40366 7.17981
640 1 1 0 1 -1.73942 10.6843 4.56598
641 1 1 0 1 9.86913 6.24152 2.34692
642 1 1 0 1 -1.51989 13.1542 5.64516
643 1 1 0 1 0.631965 9.42981 9.04255
644 1 1 0 1 -4.19563 5.54952 1.64992
645 1 1 0 1 -1.81889 1.98216 7.49401
646 1 1 0 1 1.7896 5.72941 7.24485
647 1 1 0 1 -4.485 10.7849 -4.92363
648 1 1 0 1 -4.73891 11.545 13.5441
649 1 1 0 1 -3.50575 9.16662 8.73881
650 1 1 0 1 5.40604 5.54066 11.9748
651 1 1 0 1 -0.620698 7.53524 7.92321
652 1 1 0 1 -3.63858 15.3837 18.3885
653 1 1 0 1 -5.13902 18.4624 11.4933
654 1 1 0 1 1.30381 9.63173 22.8608
655 1 1 0 1 -3.15404 7.05918 7.47279
656 1 1 0 1 -4.46955 4.26661 16.6174
657 1 1 0 1 2.56176 6.44608 14.4537
658 1 1 0 1 1.98242 12.5988 27.1456
659 1 1 0 1 -1.5824 7.68112 16.2194
660 1 1 0 1 0.814491 7.38538 19.7072
661 1 1 0 1 -0.895406 10.4541 -0.132415
662 1 1 0 1 1.46001 9.27001 -1.92178
663 1 1 0 1 -2.73304 7.11766 1.11326
664 1 1 0 1 -3.15303 9.20356 4.7427
665 1 1 0 1 -7.8725 1.47065 4.55516
666 1 1 0 1 7.24351 8.92624 13.4988
667 1 1 0 1 -6.14835 6.42531 -2.32695
668 1 1 0 1 -8.30123 4.80264 2.17167
669 1 1 0 1 3.18091 7.64916 2.50297
670 1 1 0 1 -3.70442 6.41323 7.94174
671 1 1 0 1 1.55282 4.72796 2.84969
672 1 1 0 1 1.53959 17.5402 15.4652
673 1 1 0 1 -5.03824 16.8597 14.1206
674 1 1 0 1 -1.22075 15.85 17.1576
675 1 1 0 1 -1.34896 12.3234 18.6095
676 1 1 0 1 -6.25757 3.31969 15.1681
677 1 1 0 1 -3.90131 10.1526 19.1517
678 1 1 0 1 4.87316 4.86651 18.6101
679 1 1 0 1 -8.05149 4.75751 15.7844
680 1 1 0 1 -1.59699 6.94999 15.013
681 1 1 0 1 -0.990275 11.4187 21.9878
682 1 1 0 1 4.09967 11.7128 23.0914
683 1 1 0 1 -1.14063 11.5556 3.74003
684 1 1 0 1 -2.27971 4.33426 0.356691
685 1 1 0 1 -0.896099 14.3897 7.10303
686 1 1 0 1 -2.12894 5.32275 7.79297
687 1 1 0 1 1.22174 15.6933 4.36125
688 1 1 0 1 -2.92021 14.3252 9.1755
689 1 1 0 1 -2.62604 2.75149 7.87551
690 1 1 0 1 1.22272 8.70225 14.6651
691 1 1 0 1 0.420674 2.15591 2.93571
692 1 1 0 1 -1.53784 9.13284 8.83254
693 1 1 0 1 0.928476 6.32619 19.0814
694 1 1 0 1 -7.76136 13.1613 13.4382
695 1 1 0 1 -1.84109 11.4115 15.3793
696 1 1 0 1 -3.70836 4.80519 20.699
697 1 1 0 1 0.675935 9.61104 15.9466
698 1 1 0 1 -7.76125 8.27118 17.501
699 1 1 0 1 1.9719 6.64697 20.5118
700 1 1 0 1 3.41917 14.7947 18.3233
701 1 1 0 1 -4.37425 11.8293 17.2934
702 1 1 0 1 -4.79223 6.2857 19.6582
703 1 1 0 1 -2.24278 13.7039 19.4104
704 1 1 0 1 4.05471 19.6519 18.726
705 1 1 0 1 -0.755589 10.3313 5.00081
706 1 1 0 1 -2.07807 9.28016 -2.04783
707 1 1 0 1 -0.584405 25.1145 0.919217
708 1 1 0 1 6.7582 9.30806 2.11304
709 1 1 0 1 -7.05435 9.98317 3.69294
710 1 1 0 1 0.374401 14.453 3.60762
711 1 1 0 1 -4.50221 5.15368 6.72532
712 1 1 0 1 -2.11748 13.7859 12.8684
713 1 1 0 1 -3.17654 13.1133 9.42989
714 1 1 0 1 -0.175252 11.0101 3.61063
715 1 1 0 1 -4.73131 8.69828 15.3382
716 1 1 0 1 -2.53273 12.6336 18.7564
717 1 1 0 1 -4.59192 14.8952 17.034
718 1 1 0 1 -0.0990844 11.5973 14.8116
719 1 1 0 1 -4.30594 6.72943 15.7249
720 1 1 0 1 -2.8549 12.9577 22.193
721 1 1 0 1 -10.2744 10.5819 13.2166
722 1 1 0 1 5.47952 18.3631 26.4952
723 1 1 0 1 -0.559116 13.0972 18.2996
724 1 1 0 1 1.37745 13.3151 22.7596
725 1 1 0 1 1.44184 15.0808 25.4827
726 1 1 0 1 -6.95667 19.0835 23.0759
727 1 1 0 1 1.97312 12.7587 1.83747
728 1 1 0 1 -2.3102 13.9693 -1.37027
729 1 1 0 1 -3.49942 5.48821 -5.37491
730 1 1 0 1 -1.24519 17.589 6.46486
731 1 1 0 1 -1.2113 16.4985 6.31223
732 1 1 0 1 4.72661 14.0822 5.02558
733 1 1 0 1 -3.35891 9.6784 2.22145
734 1 1 0 1 2.43382 2.52277 2.49848
735 1 1 0 1 -6.34862 13.4387 6.66998
736 1 1 0 1 -8.65491 15.8691 -3.40451
737 1 1 0 1 1.91955 12.3774 16.0962
738 1 1 0 1 9.91135 14.1848 10.2631
739 1 1 0 1 -3.99339 6.93106 17.0067
740 1 1 0 1 -0.839318 10.3997 20.8272
741 1 1 0 1 -3.22259 9.58841 19.6241
742 1 1 0 1 5.87457 9.18245 23.4497
743 1 1 0 1 -1.31685 11.4048 22.9731
744 1 1 0 1 4.95359 16.1028 26.0752
745 1 1 0 1 -2.6107 10.8657 21.3385
746 1 1 0 1 -1.6546 14.3402 18.7647
747 1 1 0 1 3.99178 12.7903 22.3617
748 1 1 0 1 1.00627 16.4655 29.882
749 1 1 0 1 2.41995 11.9912 2.49734
750 1 1 0 1 1.78893 11.4064 6.68485
751 1 1 0 1 -11.7662 12.4428 6.10816
752 1 1 0 1 0.478046 14.771 9.09292
753 1 1 0 1 -2.73132 10.8458 7.30161
754 1 1 0 1 1.62715 10.2976 1.65134
755 1 1 0 1 0.593642 17.628 1.01022
756 1 1 0 1 -9.5844 24.3875 4.28261
757 1 1 0 1 -4.53661 13.3779 15.131
758 1 1 0 1 -7.55523 19.9141 12.3841
759 1 1 0 1 -7.07012 6.54818 6.47803
760 1 1 0 1 -1.36662 4.21644 15.7577
761 1 1 0 1 -5.95319 18.8575 14.8284
762 1 1 0 1 -6.11475 13.6415 11.5966
763 1 1 0 1 1.21462 16.9082 12.0653
764 1 1 0 1 -3.01102 19.401 15.645
765 1 1 0 1 1.59301 15.9941 20.8347
766 1 1 0 1 -5.85084 13.673 16.0338
767 1 1 0 1 -8.76047 13.8128 19.5357
768 1 1 0 1 -1.09148 12.5005 23.9438
769 1 1 0 1 4.55981 9.66025 22.2187
770 1 1 0 1 -1.63427 16.2986 25.1351
771 1 1 0 1 -5.46693 11.7773 4.10538
772 1 1 0 1 -0.554307 14.6214 11.6126
773 1 1 0 1 -3.10517 11.5663 4.24847
774 1 1 0 1 -2.7844 12.3851 14.6032
775 1 1 0 1 -7.78357 13.8582 -2.67385
776 1 1 0 1 -1.69747 10.0871 8.17074
777 1 1 0 1 -5.04958 16.389 8.56224
778 1 1 0 1 -3.92155 12.3912 13.9594
779 1 1 0 1 -2.50183 16.5297 17.1445
780 1 1 0 1 -3.73796 16.3735 11.2312
781 1 1 0 1 2.53338 17.2578 18.4271
782 1 1 0 1 -3.41149 17.6784 17.0106
783 1 1 0 1 -3.13803 15.7461 10.6006
784 1 1 0 1 -2.04549 16.842 22.7561
785 1 1 0 1 -5.57636 24.4298 18.3226
786 1 1 0 1 -3.36271 11.9811 19.8644
787 1 1 0 1 4.84578 12.403 22.8343
788 1 1 0 1 -10.9897 17.7333 13.63
789 1 1 0 1 -4.26681 18.6664 20.8031
790 1 1 0 1 -2.11959 12.5685 25.7409
791 1 1 0 1 -3.86793 12.9568 19.8519
792 1 1 0 1 -1.24846 9.60719 22.572
793 1 1 0 1 -8.39107 16.8106 3.91991
794 1 1 0 1 0.988236 20.3278 5.12523
795 1 1 0 1 0.929491 22.0014 -3.27451
796 1 1 0 1 -1.1246 15.6304 8.68016
797 1 1 0 1 -3.69944 20.6305 2.02073
798 1 1 0 1 -0.0285308 14.7044 0.266542
799 1 1 0 1 -1.17685 13.5595 8.98031
800 1 1 0 1 3.85486 6.27227 0.898545
801 1 1 0 1 7.65331 14.6306 13.0534
802 1 1 0 1 -6.76806 21.1497 10.6871
803 1 1 0 1 0.775046 16.1533 19.142
804 1 1 0 1 -3.59962 14.3027 15.0385
805 1 1 0 1 -5.83013 15.2017 19.2938
806 1 1 0 1 -1.81865 2.65889 5.4273
807 1 1 0 1 -1.2665 18.0968 17.3117
808 1 1 0 1 1.32868 18.3968 10.2937
809 1 1 0 1 -5.1692 17.3015 13.2614
810 1 1 0 1 -0.953886 18.1951 19.6751
811 1 1 0 1 3.16314 16.9781 21.5894