ITEM: TIMESTEP
35000
ITEM: NUMBER OF ATOMS
6752
ITEM: BOX BOUNDS pp pp pp
0.0000000000000000e+00 2.2000000000000000e+01
0.0000000000000000e+00 2.2000000000000000e+01
0.0000000000000000e+00 2.2000000000000000e+01
ITEM: ATOMS id mol type q mass xu yu zu
1 1 1 0 1 -6.52918 -8.75657 6.20477
2 1 1 0 1 0.80157 8.86653 -4.97215
3 1 1 0 1 -3.68823 3.32603 -0.781864
4 1 1 0 1 -10.9919 0.54611 7.43729
5 1 1 0 1 7.36505 4.14793 1.54258
6 1 1 0 1 -15.6274 -3.47629 9.98794
7 1 1 0 1 5.14251 1.12797 3.60893
8 1 1 0 1 1.8589 -3.07176 14.9369
9 1 1 0 1 5.16297 -3.39972 10.8627
10 1 1 0 1 -8.10546 -8.76761 14.9512
11 1 1 0 1 -1.65625 -6.67967 -0.801748
12 1 1 0 1 -2.16455 -2.4533 11.0431
13 1 1 0 1 11.7247 1.06493 14.4719
14 1 1 0 1 -6.0608 9.05867 10.0336
15 1 1 0 1 -6.07788 4.15535 7.65789
16 1 1 0 1 -1.89891 -3.50895 19.0351
17 1 1 0 1 -3.585 -2.30675 15.1666
18 1 1 0 1 -9.52565 -6.27311 24.9197
19 1 1 0 1 -11.8827 2.58189 17.8645
20 1 1 0 1 -7.90723 3.88907 20.8005
21 1 1 0 1 -9.45838 1.81972 19.7295
22 1 1 0 1 0.186782 8.19574 19.7853
23 1 1 0 1 -13.0544 -4.03834 8.37618
24 1 1 0 1 -13.8037 3.46208 3.58768
25 1 1 0 1 0.435901 2.35651 -4.11143
26 1 1 0 1 4.14006 -8.57169 2.50918
27 1 1 0 1 -1.31097 -1.97996 11.5556
28 1 1 0 1 -6.53652 7.94079 2.30104
29 1 1 0 1 -2.72821 -7.15142 14.9851
30 1 1 0 1 -1.42901 0.852784 18.8236
31 1 1 0 1 -2.37302 12.055 6.77213
32 1 1 0 1 -5.93572 -3.41526 3.60859
33 1 1 0 1 -9.34668 0.49785 9.46213
34 1 1 0 1 -6.37113 7.05429 10.8662
35 1 1 0 1 -0.14086 7.95701 15.2432
36 1 1 0 1 1.42216 1.08396 7.93331
37 1 1 0 1 -0.560825 1.81669 8.31014
38 1 1 0 1 0.963751 1.42176 22.4417
39 1 1 0 1 -0.823159 6.22185 8.29867
40 1 1 0 1 -2.22257 5.60908 21.0552
41 1 1 0 1 -7.29776 0.185503 13.7427
42 1 1 0 1 -1.88189 2.11523 24.0077
43 1 1 0 1 -4.91834 10.6888 15.5722
44 1 1 0 1 -2.43249 11.2759 17.2968
45 1 1 0 1 -12.1615 9.43108 1.2216
46 1 1 0 1 -6.83963 2.84051 4.57215
47 1 1 0 1 -6.98014 0.229286 7.83582
48 1 1 0 1 -8.23589 13.66 -1.31769
49 1 1 0 1 -7.01303 5.04273 3.83811
50 1 1 0 1 -5.37161 7.12157 0.302291
51 1 1 0 1 -3.52419 -4.25343 2.38852
52 1 1 0 1 5.79085 3.46792 12.5246
53 1 1 0 1 -2.78092 -0.255476 2.89056
54 1 1 0 1 -11.4403 -2.27327 19.3169
55 1 1 0 1 -2.24303 1.63832 6.387
56 1 1 0 1 -7.24704 1.48611 2.81744
57 1 1 0 1 -6.01011 10.3474 14.6863
58 1 1 0 1 -3.59084 9.53981 8.91388
59 1 1 0 1 -3.9318 4.0957 8.58423
60 1 1 0 1 2.16041 1.96769 23.52
61 1 1 0 1 -5.8162 7.46901 16.6561
62 1 1 0 1 -0.207828 1.13608 24.1462
63 1 1 0 1 -0.365811 9.62244 2.2293
64 1 1 0 1 -2.28611 0.63468 17.7661
65 1 1 0 1 -12.5314 -3.67325 20.328
66 1 1 0 1 -0.176538 8.83891 27.3363
67 1 1 0 1 -11.4252 -2.25552 -4.02055
68 1 1 0 1 -2.21915 5.15582 -14.327
69 1 1 0 1 -1.04198 8.59312 1.3294
70 1 1 0 1 0.00618806 13.9215 1.76507
71 1 1 0 1 -1.17213 -1.76407 2.06714
72 1 1 0 1 -11.028 9.43931 4.24373
73 1 1 0 1 -0.468109 0.832883 4.41053
74 1 1 0 1 -3.85381 -0.896786 14.1667
75 1 1 0 1 -4.15035 0.19013 3.56961
76 1 1 0 1 -0.152465 -5.9791 9.6145
77 1 1 0 1 -10.9014 -3.72011 5.41164
78 1 1 0 1 -0.702081 6.29034 5.35517
79 1 1 0 1 -1.11907 7.22127 13.6004
80 1 1 0 1 -1.07625 -5.42613 11.4301
81 1 1 0 1 1.04688 2.68304 11.5874
82 1 1 0 1 -2.92333 -3.88342 14.0609
83 1 1 0 1 -3.72773 -2.47962 16.2642
84 1 1 0 1 -1.41336 6.45385 14.279
85 1 1 0 1 -1.25224 -3.80025 28.1749
86 1 1 0 1 2.5545 -7.85143 18.5385
87 1 1 0 1 -2.16033 7.32597 18.3461
88 1 1 0 1 -3.35465 4.50337 15.7206
89 1 1 0 1 -5.93558 11.2299 -0.667202
90 1 1 0 1 -1.31045 12.2307 12.7237
91 1 1 0 1 -3.15494 -4.56362 12.9878
92 1 1 0 1 5.88206 2.9742 4.40965
93 1 1 0 1 4.61227 8.12883 -0.542967
94 1 1 0 1 -1.62566 -7.61025 0.816854
95 1 1 0 1 -2.78302 9.30039 4.138
96 1 1 0 1 3.31826 3.18395 -1.01081
97 1 1 0 1 -12.1227 9.70211 14.1739
98 1 1 0 1 6.05378 5.43059 3.46301
99 1 1 0 1 0.160288 7.61839 5.44887
100 1 1 0 1 -1.87045 4.43762 1.7587
101 1 1 0 1 -5.79041 1.09278 11.2856
102 1 1 0 1 -5.92015 3.9271 9.32387
103 1 1 0 1 -12.9823 12.2273 9.16165
104 1 1 0 1 -3.20302 17.1567 16.5028
105 1 1 0 1 -2.48218 2.01035 2.90006
106 1 1 0 1 -0.234061 3.46104 18.1574
107 1 1 0 1 -7.28944 7.5738 16.9773
108 1 1 0 1 9.94327 6.1185 13.4505
109 1 1 0 1 -12.8365 4.55497 25.1749
110 1 1 0 1 -7.65837 2.9264 22.6143
111 1 1 0 1 -7.67777 1.25021 -1.80369
112 1 1 0 1 -3.51771 12.5554 -4.22378
113 1 1 0 1 -1.29963 7.083 16.858
114 1 1 0 1 3.17617 8.44232 7.81196
115 1 1 0 1 -5.62031 12.1051 2.89401
116 1 1 0 1 1.03333 13.516 10.4447
117 1 1 0 1 -2.15215 6.87114 3.90182
118 1 1 0 1 -0.305642 7.20025 2.33103
119 1 1 0 1 -11.2285 9.59597 7.66608
120 1 1 0 1 -1.87464 -0.415086 1.94046
121 1 1 0 1 -5.42822 3.25567 -1.74903
122 1 1 0 1 0.613422 4.16826 9.67662
123 1 1 0 1 -6.02568 1.47147 15.116
124 1 1 0 1 -11.4512 10.4392 18.2238
125 1 1 0 1 -9.64812 7.41449 5.1527
126 1 1 0 1 -6.08159 6.17287 22.0462
127 1 1 0 1 -0.25404 6.66499 14.6532
128 1 1 0 1 -11.7379 8.27236 11.9128
129 1 1 0 1 -5.12447 5.33037 24.569
130 1 1 0 1 -2.55634 1.57264 10.7612
131 1 1 0 1 -10.91 3.86961 4.19183
132 1 1 0 1 -7.02698 5.29422 24.0833
133 1 1 0 1 5.72667 6.51467 3.33294
134 1 1 0 1 -8.77233 12.7235 3.81226
135 1 1 0 1 -7.5932 0.0806738 1.82038
136 1 1 0 1 -1.66662 17.3775 1.58924
137 1 1 0 1 -6.73979 3.29004 10.5039
138 1 1 0 1 -10.5996 9.50908 20.2116
139 1 1 0 1 3.62919 5.63567 3.97516
140 1 1 0 1 -14.2742 14.575 -0.187134
141 1 1 0 1 6.98377 3.86158 0.536975
142 1 1 0 1 0.183472 1.16985 10.5977
143 1 1 0 1 0.793284 -4.23786 10.637
144 1 1 0 1 -1.7978 -2.27962 10.0149
145 1 1 0 1 -6.23716 9.86848 23.1986
146 1 1 0 1 -9.69586 7.29175 21.4036
147 1 1 0 1 1.14179 24.158 16.9679
148 1 1 0 1 -2.68373 15.311 13.1608
149 1 1 0 1 -9.84822 -2.21942 20.0601
150 1 1 0 1 -7.87368 9.26713 4.5945
151 1 1 0 1 -4.78514 8.9958 19.1283
152 1 1 0 1 -5.58986 -0.688359 20.4663
153 1 1 0 1 -1.41011 11.912 20.7185
154 1 1 0 1 -0.85361 5.42708 20.3802
155 1 1 0 1 -2.46103 4.32231 -6.84261
156 1 1 0 1 -1.76757 3.52522 -3.376
157 1 1 0 1 -4.33698 15.2627 2.35529
158 1 1 0 1 -3.75099 15.4167 5.31023
159 1 1 0 1 -10.5241 7.20719 1.16591
160 1 1 0 1 -4.37821 4.87455 3.0873
161 1 1 0 1 1.46649 10.8391 5.91413
162 1 1 0 1 -7.28116 6.36506 5.57695
163 1 1 0 1 2.24106 11.3305 2.11662
164 1 1 0 1 -10.1938 7.85212 13.7027
165 1 1 0 1 0.183271 -1.12571 15.1133
166 1 1 0 1 -8.74094 10.615 22.5451
167 1 1 0 1 -5.65674 16.4187 18.1307
168 1 1 0 1 -8.36055 4.93885 20.8105
169 1 1 0 1 -14.0941 15.1129 10.7901
170 1 1 0 1 6.17942 7.69176 22.2836
171 1 1 0 1 -2.83683 18.4748 28.013
172 1 1 0 1 0.512299 6.72605 19.2707
173 1 1 0 1 -3.16162 1.00776 14.3704
174 1 1 0 1 6.51468 6.15474 24.7942
175 1 1 0 1 -4.34344 6.01521 16.7081
176 1 1 0 1 4.05045 0.870436 23.5148
177 1 1 0 1 -6.13265 9.2238 -3.01918
178 1 1 0 1 -0.284733 21.0244 10.4839
179 1 1 0 1 -6.24424 19.0805 0.823139
180 1 1 0 1 -1.45537 21.0499 -5.03569
181 1 1 0 1 -14.9485 17.6775 2.65872
182 1 1 0 1 -6.34266 14.8113 3.29598
183 1 1 0 1 -7.39927 18.1422 -1.90991
184 1 1 0 1 -1.49833 8.8684 8.50365
185 1 1 0 1 -11.3237 -2.48636 12.1694
186 1 1 0 1 -13.8088 13.2164 10.7523
187 1 1 0 1 -4.91884 17.3079 16.8634
188 1 1 0 1 0.635024 -1.02773 11.9185
189 1 1 0 1 -7.90394 13.9613 18.3825
190 1 1 0 1 -5.07859 2.45698 16.0337
191 1 1 0 1 -4.85837 8.49757 31.4518
192 1 1 0 1 -4.69159 4.79518 8.86903
193 1 1 0 1 2.27307 5.99025 19.4801
194 1 1 0 1 8.85926 6.61424 17.2378
195 1 1 0 1 -4.94333 4.1689 12.8332
196 1 1 0 1 -2.88858 7.85555 20.1524
197 1 1 0 1 -5.1899 6.65803 13.5764
198 1 1 0 1 10.3266 4.72621 28.6802
199 1 1 0 1 -2.109 13.468 3.65381
200 1 1 0 1 5.50649 10.8285 6.80219
201 1 1 0 1 -1.01434 17.5852 -2.95339
202 1 1 0 1 -5.31199 2.93057 3.48527
203 1 1 0 1 -4.27889 8.4596 7.8017
204 1 1 0 1 -0.908479 6.17842 15.7286
205 1 1 0 1 6.40909 3.22441 -0.168768
206 1 1 0 1 5.10594 7.67777 7.28529
207 1 1 0 1 0.448109 6.30292 5.87706
208 1 1 0 1 1.80332 6.80891 6.73146
209 1 1 0 1 0.311148 0.37845 -1.54567
210 1 1 0 1 -4.86941 7.91908 -0.931984
211 1 1 0 1 0.185818 10.4091 3.02726
212 1 1 0 1 -10.4642 10.7653 16.4965
213 1 1 0 1 -3.5875 10.3501 23.7577
214 1 1 0 1 -17.8978 25.071 17.9391
215 1 1 0 1 -6.99681 17.5634 11.835
216 1 1 0 1 -5.80843 8.69093 16.839
217 1 1 0 1 -11.7791 14.5286 28.451
218 1 1 0 1 1.43898 7.72638 27.0671
219 1 1 0 1 -0.474587 13.5838 24.5458
220 1 1 0 1 -0.210359 17.1002 19.5682
221 1 1 0 1 17.0366 6.14801 -1.47015
222 1 1 0 1 -4.92783 17.0974 -2.44038
223 1 1 0 1 -10.7372 13.1335 1.11584
224 1 1 0 1 -4.38535 11.7503 -3.678
225 1 1 0 1 -11.8016 21.5344 6.23281
226 1 1 0 1 -11.3212 8.18511 4.03624
227 1 1 0 1 -6.17875 18.1942 10.6798
228 1 1 0 1 -8.14181 14.352 0.0570132
229 1 1 0 1 5.01651 10.9163 11.8947
230 1 1 0 1 -2.65218 10.7295 11.0629
231 1 1 0 1 -1.60895 6.49223 13.0811
232 1 1 0 1 -0.294335 0.0467187 10.3398
233 1 1 0 1 -0.575966 9.73311 13.8556
234 1 1 0 1 -10.5687 14.1439 11.1286
235 1 1 0 1 -5.87273 11.1613 16.7109
236 1 1 0 1 -5.45575 6.80503 8.99334
237 1 1 0 1 -13.2267 12.622 21.4935
238 1 1 0 1 -10.1862 10.9036 15.5186
239 1 1 0 1 -1.0297 7.59708 14.6921
240 1 1 0 1 -5.21353 16.3427 12.1426
241 1 1 0 1 -3.47155 6.98666 17.1117
242 1 1 0 1 -4.60901 -2.93714 20.0827
243 1 1 0 1 -4.02323 8.00531 -1.67
244 1 1 0 1 -2.83025 6.05504 -5.22163
245 1 1 0 1 -9.95984 12.1099 -2.53992
246 1 1 0 1 -1.06244 11.0915 4.49825
247 1 1 0 1 -7.55665 13.7042 9.29269
248 1 1 0 1 1.17182 -1.90707 7.43618
249 1 1 0 1 -11.4611 8.30684 6.3478
250 1 1 0 1 0.690124 11.4607 5.26264
251 1 1 0 1 -1.99961 6.10007 6.96999
252 1 1 0 1 -2.5208 3.44582 5.35014
253 1 1 0 1 1.14191 1.729 18.1121
254 1 1 0 1 -1.60625 10.3355 22.5018
255 1 1 0 1 -7.59256 3.52448 4.53232
256 1 1 0 1 -9.13995 18.1946 9.91526
257 1 1 0 1 3.13612 18.3184 18.0836
258 1 1 0 1 -1.22782 11.7192 23.776
259 1 1 0 1 -2.46185 15.0554 21.8445
260 1 1 0 1 -0.470984 14.7786 25.4549
261 1 1 0 1 -4.29711 11.5021 15.4024
262 1 1 0 1 -4.44845 7.17852 16.8461
263 1 1 0 1 8.13648 15.5997 18.0442
264 1 1 0 1 -1.57371 12.9741 20.1808
265 1 1 0 1 -6.46399 17.0369 1.37419
266 1 1 0 1 4.41003 21.8708 5.22834
267 1 1 0 1 3.36254 16.2429 11.9417
268 1 1 0 1 -6.50096 4.4153 -2.58264
269 1 1 0 1 -3.83554 4.70777 9.49881
270 1 1 0 1 -5.34036 16.6613 -1.58044
271 1 1 0 1 -3.20591 5.42381 6.88955
272 1 1 0 1 -9.15935 10.7563 19.5433
273 1 1 0 1 -4.3298 14.0207 10.839
274 1 1 0 1 -14.6324 9.33667 6.87051
275 1 1 0 1 -10.7113 -2.45325 9.88816
276 1 1 0 1 -1.27887 15.7822 13.4313
277 1 1 0 1 -8.32883 7.98753 11.0496
278 1 1 0 1 3.24677 13.6526 17.5366
279 1 1 0 1 -4.5808 20.1557 14.6846
280 1 1 0 1 -7.63454 14.7544 10.9949
281 1 1 0 1 1.68244 15.0446 28.2739
282 1 1 0 1 -3.31425 12.2232 11.3823
283 1 1 0 1 3.62339 8.00392 15.2994
284 1 1 0 1 -7.0893 14.9725 15.4545
285 1 1 0 1 -8.24541 3.55383 15.2972
286 1 1 0 1 -5.81823 12.9801 19.9084
287 1 1 0 1 -8.64996 21.9408 5.46529
288 1 1 0 1 -4.44345 14.9495 -3.33734
289 1 1 0 1 -14.3513 -0.586292 7.29287
290 1 1 0 1 -5.57005 12.1056 6.51647
291 1 1 0 1 -5.91179 -1.51684 13.3494
292 1 1 0 1 -5.84179 14.3181 11.2181
293 1 1 0 1 2.89157 9.2896 5.58273
294 1 1 0 1 -1.61467 9.80736 9.37262
295 1 1 0 1 -0.527058 10.2438 3.75153
296 1 1 0 1 -1.87962 17.8166 11.8325
297 1 1 0 1 -7.84603 15.0938 5.64696
298 1 1 0 1 -2.99725 6.80355 18.3477
299 1 1 0 1 -4.44027 20.3681 10.589
300 1 1 0 1 1.94078 21.6345 22.0409
301 1 1 0 1 -0.599223 18.5985 18.0681
302 1 1 0 1 -8.08519 16.9559 11.2531
303 1 1 0 1 -10.0565 14.697 5.03316
304 1 1 0 1 4.15867 3.06665 8.01469
305 1 1 0 1 7.65887 12.6344 24.9728
306 1 1 0 1 -5.4483 13.1533 18.1223
307 1 1 0 1 -1.04703 16.5002 19.5092
308 1 1 0 1 7.40093 29.7059 29.8064
309 1 1 0 1 0.64861 13.8415 6.38282
310 1 1 0 1 0.0553236 14.1661 8.7897
311 1 1 0 1 -9.40776 9.27286 -2.98144
312 1 1 0 1 -3.28418 5.60645 2.8114
313 1 1 0 1 -12.8831 12.1043 2.73381
314 1 1 0 1 -4.44618 8.37899 3.16426
315 1 1 0 1 1.34722 8.63139 4.18539
316 1 1 0 1 -11.469 21.8849 9.48249
317 1 1 0 1 -4.48837 14.9939 10.3572
318 1 1 0 1 -3.099 20.357 14.2381
319 1 1 0 1 -4.42292 11.8291 6.26647
320 1 1 0 1 5.10718 19.7255 5.45382
321 1 1 0 1 -2.27866 12.6568 16.1712
322 1 1 0 1 -3.73725 12.8171 20.2477
323 1 1 0 1 -4.64359 13.3091 5.53946
324 1 1 0 1 4.82281 3.95355 3.27035
325 1 1 0 1 -0.198892 13.3417 6.98422
326 1 1 0 1 -5.6894 12.291 17.2867
327 1 1 0 1 -7.63424 14.921 19.2029
328 1 1 0 1 0.232066 16.8754 20.6697
329 1 1 0 1 0.25971 14.6624 22.9334
330 1 1 0 1 2.58708 22.8788 25.2447
331 1 1 0 1 -10.1288 14.0364 5.90031
332 1 1 0 1 -3.50315 18.5177 3.88402
333 1 1 0 1 3.11461 6.26046 7.0044
334 1 1 0 1 -6.47589 19.4158 -4.80806
335 1 1 0 1 5.57918 12.8038 11.1008
336 1 1 0 1 -12.1654 14.4947 3.22257
337 1 1 0 1 -6.41474 13.4489 0.835941
338 1 1 0 1 -4.40998 13.7397 2.97977
339 1 1 0 1 -8.4035 13.073 5.1476
340 1 1 0 1 -4.61479 3.34113 7.02282
341 1 1 0 1 -3.69639 12.055 8.34844
342 1 1 0 1 -0.0106925 16.6096 8.67283
343 1 1 0 1 5.97704 10.2959 5.03648
344 1 1 0 1 -13.8558 11.4191 10.727
345 1 1 0 1 -3.57056 19.7988 12.4791
346 1 1 0 1 -2.72229 15.6244 20.9337
347 1 1 0 1 2.34723 23.8322 8.68314
348 1 1 0 1 -4.40661 14.4214 17.4448
349 1 1 0 1 1.56208 22.3498 17.3644
350 1 1 0 1 -1.11226 13.6054 14.5556
351 1 1 0 1 -13.9166 16.6255 24.7686
352 1 1 0 1 -2.144 17.0605 29.4718
353 1 1 0 1 -12.9938 17.3934 -7.51466
354 1 1 0 1 -0.265618 17.4924 -0.636362
355 1 1 0 1 -0.691203 8.17624 9.16132
356 1 1 0 1 -7.48102 9.26713 8.55356
357 1 1 0 1 -3.31958 21.8241 -1.86483
358 1 1 0 1 -9.86278 17.8688 4.22181
359 1 1 0 1 -10.4434 16.3518 21.9875
360 1 1 0 1 4.56138 10.9811 0.173299
361 1 1 0 1 1.18908 14.7658 13.3758
362 1 1 0 1 -3.06065 16.55 8.44737
363 1 1 0 1 -2.33248 14.6999 7.87566
364 1 1 0 1 8.50624 7.40381 8.71521
365 1 1 0 1 -2.52714 -3.52711 5.07782
366 1 1 0 1 -2.58637 11.5479 11.8522
367 1 1 0 1 -2.27544 2.53302 15.7102
368 1 1 0 1 -2.03702 17.9993 16.4776
369 1 1 0 1 -2.73859 12.2865 9.90341
370 1 1 0 1 -1.33976 6.13499 4.325
371 1 1 0 1 -15.7546 21.5274 26.7947
372 1 1 0 1 -2.50008 19.8697 20.675
373 1 1 0 1 -9.93528 12.2783 17.4817
374 1 1 0 1 1.13991 16.0031 26.4519
375 1 1 0 1 -11.0785 -0.0470666 5.43642
376 1 1 0 1 -12.9919 15.0101 -0.754474
377 1 1 0 1 -8.71899 7.28442 -2.43023
378 1 1 0 1 -7.10952 16.209 11.8461
379 1 1 0 1 -1.37506 11.2108 -9.68572
380 1 1 0 1 -3.29386 14.7877 2.06057
381 1 1 0 1 -7.23001 16.0956 4.64254
382 1 1 0 1 -15.0591 13.9796 13.4362
383 1 1 0 1 -3.15589 23.7564 9.68524
384 1 1 0 1 2.25863 12.2559 10.7121
385 1 1 0 1 -11.806 19.1301 5.36971
386 1 1 0 1 -0.572017 12.7742 13.4492
387 1 1 0 1 -6.7099 9.32373 17.1373
388 1 1 0 1 -7.57614 18.9395 15.4322
389 1 1 0 1 -4.79702 19.5849 15.9132
390 1 1 0 1 4.62006 9.89933 22.4921
391 1 1 0 1 -6.49826 25.5311 16.5705
392 1 1 0 1 -5.75655 15.9169 10.5708
393 1 1 0 1 -6.72525 6.1744 11.0561
394 1 1 0 1 -2.34785 13.5253 20.6719
395 1 1 0 1 -8.40488 17.8703 9.10248
396 1 1 0 1 -0.753433 7.76777 19.378
397 1 1 0 1 -5.48036 19.0658 -1.1332
398 1 1 0 1 -4.26661 26.8847 -1.99978
399 1 1 0 1 -2.00499 16.3973 5.33716
400 1 1 0 1 -3.19048 11.5249 3.81073
401 1 1 0 1 -5.67954 6.93334 10.0809
402 1 1 0 1 -8.28114 9.5721 16.0711
403 1 1 0 1 -1.61556 13.8527 9.52639
404 1 1 0 1 -1.53442 32.2703 8.11933
405 1 1 0 1 -9.89884 14.2442 8.39433
406 1 1 0 1 -9.42637 19.6699 7.41511
407 1 1 0 1 -1.01404 18.5423 9.87481
408 1 1 0 1 -12.8524 22.1051 16.3705
409 1 1 0 1 -10.1564 9.66188 13.5282
410 1 1 0 1 -5.90687 6.26285 3.68777
411 1 1 0 1 9.90189 18.0705 3.64866
412 1 1 0 1 -12.6134 13.5285 3.54893
413 1 1 0 1 -12.1092 6.37966 20.3941
414 1 1 0 1 -4.92152 15.2149 19.5904
415 1 1 0 1 0.834948 15.7613 28.554
416 1 1 0 1 -4.99589 19.4314 27.6032
417 1 1 0 1 -3.06809 22.2933 26.0398
418 1 1 0 1 -0.35848 18.2329 28.6487
419 1 1 0 1 -7.33761 19.2973 0.830589
420 1 1 0 1 -5.05076 26.2938 20.4641
421 1 1 0 1 -4.59616 17.3731 9.15255
422 1 1 0 1 -4.2161 5.78936 2.20714
423 1 1 0 1 -1.23968 31.2923 13.1611
424 1 1 0 1 -2.37272 18.2056 18.2149
425 1 1 0 1 -3.0395 11.6622 2.69247
426 1 1 0 1 -9.91354 19.1206 -3.85009
427 1 1 0 1 -5.59607 26.7415 -3.14904
428 1 1 0 1 3.08923 14.0475 2.33547
429 1 1 0 1 -4.48979 27.4968 6.76086
430 1 1 0 1 -2.05979 16.1522 7.91065
431 1 1 0 1 -7.75792 11.7767 11.7136
432 1 1 0 1 -4.28576 25.0834 10.6469
433 1 1 0 1 -2.36403 22.2517 14.2554
434 1 1 0 1 -5.70827 6.92012 4.62873
435 1 1 0 1 -4.65616 15.5944 21.7865
436 1 1 0 1 -6.29616 8.78289 11.0172
437 1 1 0 1 1.10295 23.4543 13.7704
438 1 1 0 1 -8.45972 18.3435 20.8758
439 1 1 0 1 -1.4552 24.6803 22.9294
440 1 1 0 1 -0.642221 13.9278 22.7686
441 1 1 0 1 -5.94699 21.4925 -5.0608
442 1 1 0 1 -11.3405 20.0578 2.25203
443 1 1 0 1 -3.40933 11.8838 -2.71497
444 1 1 0 1 -0.277071 23.8725 6.09768
445 1 1 0 1 -1.75147 17.777 3.05234
446 1 1 0 1 0.0751228 12.2065 15.3033
447 1 1 0 1 -2.46133 7.8825 8.52216
448 1 1 0 1 -6.84184 16.0512 13.2032
449 1 1 0 1 -2.0788 17.4477 12.9207
450 1 1 0 1 0.117963 13.0409 25.8649
451 1 1 0 1 -6.01488 11.3025 12.2136
452 1 1 0 1 -6.59023 23.0831 19.9001
453 1 1 0 1 -3.4953 13.021 15.9554
454 1 1 0 1 3.86242 19.2389 12.4586
455 1 1 0 1 -1.88767 3.01781 -0.0836889
456 1 1 0 1 -2.98672 22.5304 18.7289
457 1 1 0 1 -7.76352 20.9231 18.2142
458 1 1 0 1 -11.5202 15.8062 17.2966
459 1 1 0 1 -8.77927 12.2545 14.7802
460 1 1 0 1 -4.82232 16.9303 21.7526
461 1 1 0 1 4.41014 17.5334 10.335
462 1 1 0 1 8.19722 24.4175 24.6192
463 1 1 0 1 3.30347 20.6199 -0.0570345
464 1 1 0 1 2.00442 23.9836 7.67248
465 1 1 0 1 7.65206 23.7241 -4.91002
466 1 1 0 1 -3.14761 28.7213 -1.60148
467 1 1 0 1 -5.18901 20.9669 11.3481
468 1 1 0 1 -5.76236 25.1919 2.34216
469 1 1 0 1 -1.77631 15.0073 17.9714
470 1 1 0 1 -0.0407271 18.6551 17.1709
471 1 1 0 1 6.0644 8.28882 6.00594
472 1 1 0 1 7.03357 30.0863 13.4143
473 1 1 0 1 -5.02817 21.5414 12.7606
474 1 1 0 1 0.581044 12.3108 13.0424
475 1 1 0 1 -2.50212 16.0545 14.9156
476 1 1 0 1 8.58171 29.4307 25.4127
477 1 1 0 1 2.11196 22.5816 14.1923
478 1 1 0 1 6.24254 24.5808 20.8288
479 1 1 0 1 -7.34109 36.2853 7.19243
480 1 1 0 1 8.77011 21.8482 19.6247
481 1 1 0 1 0.0987585 20.8415 16.151
482 1 1 0 1 -5.70422 27.2435 15.4074
483 1 1 0 1 -0.24907 22.0756 22.9679
484 1 1 0 1 -7.4386 23.3025 16.7483
485 1 1 0 1 -2.38385 -7.78698 2.95046
486 1 1 0 1 -2.35355 4.23726 -10.936
487 1 1 0 1 -0.84445 2.70905 1.88204
488 1 1 0 1 -9.05907 -4.651 3.25175
489 1 1 0 1 0.262656 0.78511 -4.41022
490 1 1 0 1 -9.14327 -3.30812 8.44482
491 1 1 0 1 -4.19918 1.95683 2.20306
492 1 1 0 1 -1.86587 -15.2085 15.6611
493 1 1 0 1 0.351003 -0.360306 13.3135
494 1 1 0 1 -5.85953 2.89001 6.72119
495 1 1 0 1 -3.98842 -1.20997 19.4441
496 1 1 0 1 1.83182 8.61623 16.842
497 1 1 0 1 -0.334111 -7.48015 17.1703
498 1 1 0 1 1.13123 10.0977 7.82818
499 1 1 0 1 1.78436 10.9075 8.14611
500 1 1 0 1 -2.77008 -10.322 15.9628
501 1 1 0 1 1.75021 -0.00447499 8.00649
502 1 1 0 1 -4.02132 -9.33073 19.1494
503 1 1 0 1 -5.07233 6.92266 7.66148
504 1 1 0 1 1.72594 -4.14941 7.26836
505 1 1 0 1 -5.11314 -3.6321 13.6366
506 1 1 0 1 -3.63463 9.67008 13.8008
507 1 1 0 1 1.6097 1.7383 -2.87515
508 1 1 0 1 -3.01577 1.92297 1.94461
509 1 1 0 1 -3.07468 5.24811 -0.428076
510 1 1 0 1 -14.9576 -12.7272 -3.20503
511 1 1 0 1 6.63559 1.20718 7.54134
512 1 1 0 1 -6.38917 20.2135 7.33092
513 1 1 0 1 -9.63667 -0.460953 6.36802
514 1 1 0 1 -4.05956 1.05001 -1.91368
515 1 1 0 1 5.18971 9.64754 -3.18656
516 1 1 0 1 -2.05853 12.354 7.84257
517 1 1 0 1 -0.666599 -2.5217 8.56126
518 1 1 0 1 -1.94687 2.65596 6.29086
519 1 1 0 1 4.19991 0.289656 19.0301
520 1 1 0 1 1.88198 -5.08945 12.9849
521 1 1 0 1 0.570195 2.83649 9.15576
522 1 1 0 1 -8.63199 3.58068 8.59123
523 1 1 0 1 1.18292 2.49272 12.6644
524 1 1 0 1 2.78762 3.99136 11.335
525 1 1 0 1 -3.54655 -0.930051 22.2573
526 1 1 0 1 -2.15603 -2.57327 26.384
527 1 1 0 1 -3.66716 10.3426 19.9673
528 1 1 0 1 -0.273992 0.0643218 27.0061
529 1 1 0 1 6.52661 12.099 10.2706
530 1 1 0 1 7.55293 -6.37768 -8.13834
531 1 1 0 1 3.00962 12.6889 1.46248
532 1 1 0 1 -2.87727 -4.54264 5.06452
533 1 1 0 1 -7.66493 5.51923 -4.51644
534 1 1 0 1 -5.50654 0.710966 3.02245
535 1 1 0 1 0.780264 9.15892 0.333908
536 1 1 0 1 -6.12194 14.8821 -2.71821
537 1 1 0 1 0.987756 6.05893 11.4806
538 1 1 0 1 -0.173035 2.83618 11.881
539 1 1 0 1 2.3442 9.73578 3.90095
540 1 1 0 1 2.34337 9.27857 9.58809
541 1 1 0 1 -6.58856 5.80214 8.48989
542 1 1 0 1 -2.40687 4.56879 12.6337
543 1 1 0 1 1.61773 12.5549 4.503
544 1 1 0 1 4.01493 8.66509 10.148
545 1 1 0 1 -1.03303 10.3617 10.6183
546 1 1 0 1 -1.14201 2.07867 9.35799
547 1 1 0 1 -1.50865 -0.952753 17.9783
548 1 1 0 1 8.31471 6.05407 27.8793
549 1 1 0 1 0.449406 4.36 25.3603
550 1 1 0 1 -3.66199 9.60631 26.9769
551 1 1 0 1 -7.76322 4.94854 -6.99303
552 1 1 0 1 -11.9349 -2.37173 -4.96643
553 1 1 0 1 1.33362 8.15588 0.184537
554 1 1 0 1 2.41361 4.79589 -1.1478
555 1 1 0 1 -2.37176 7.28598 -5.62603
556 1 1 0 1 -1.93764 3.33647 2.20566
557 1 1 0 1 5.82929 5.05309 -1.23934
558 1 1 0 1 5.5463 6.68121 8.07645
559 1 1 0 1 -3.26102 -4.49394 10.6856
560 1 1 0 1 -3.28044 -4.4487 -2.00945
561 1 1 0 1 1.47327 7.275 15.3593
562 1 1 0 1 2.2967 5.51114 24.4724
563 1 1 0 1 -0.656963 3.33295 21.8555
564 1 1 0 1 -2.44907 -2.22426 8.34382
565 1 1 0 1 13.1016 7.23657 17.9895
566 1 1 0 1 3.94498 3.44427 6.99503
567 1 1 0 1 -0.630632 4.74402 17.1332
568 1 1 0 1 11.5469 2.04308 12.6184
569 1 1 0 1 4.5443 3.72963 19.9005
570 1 1 0 1 2.69592 8.88436 30.6658
571 1 1 0 1 4.99917 5.68793 20.1603
572 1 1 0 1 2.72296 2.52789 19.9799
573 1 1 0 1 -0.221626 0.97363 -8.55472
574 1 1 0 1 -7.09413 -1.26677 1.53108
575 1 1 0 1 -4.16858 0.152494 -7.91347
576 1 1 0 1 -1.02742 8.70463 0.258758
577 1 1 0 1 -6.25291 -1.32803 -0.857506
578 1 1 0 1 -0.861401 9.72259 8.6463
579 1 1 0 1 -4.22387 6.79192 0.360797
580 1 1 0 1 0.572589 -2.78389 14.466
581 1 1 0 1 1.09819 8.26664 10.2843
582 1 1 0 1 3.4519 9.7522 6.90582
583 1 1 0 1 -11.0607 15.1457 8.99079
584 1 1 0 1 -5.42916 5.48526 13.8781
585 1 1 0 1 -4.32842 -0.625788 10.8605
586 1 1 0 1 1.76844 10.8181 20.3456
587 1 1 0 1 -5.3772 18.5874 15.434
588 1 1 0 1 -6.9027 5.3062 20.352
589 1 1 0 1 -2.53698 0.111579 12.1549
590 1 1 0 1 -3.39552 5.86716 13.0352
591 1 1 0 1 -8.19391 8.43742 7.57507
592 1 1 0 1 -2.98793 -2.39583 17.0976
593 1 1 0 1 -3.37588 4.00212 13.7349
594 1 1 0 1 -9.69203 -5.57414 20.9651
595 1 1 0 1 -3.41569 2.66059 -1.76793
596 1 1 0 1 1.20238 10.321 0.501123
597 1 1 0 1 -9.0673 4.32596 1.92883
598 1 1 0 1 5.9986 8.17863 -0.55194
599 1 1 0 1 2.53732 10.9648 1.00074
600 1 1 0 1 -6.2007 1.60282 6.03532
601 1 1 0 1 -9.39115 6.10347 -1.02195
602 1 1 0 1 -6.52677 -5.5945 -2.17197
603 1 1 0 1 1.35794 -6.28804 17.2129
604 1 1 0 1 14.9809 9.50197 19.5454
605 1 1 0 1 -5.75803 10.169 3.14806
606 1 1 0 1 -8.12303 -5.39554 14.7478
607 1 1 0 1 -1.39817 6.60205 6.21364
608 1 1 0 1 0.0272037 -4.97226 10.4082
609 1 1 0 1 4.26825 8.30314 12.8995
610 1 1 0 1 1.31189 12.8533 8.53935
611 1 1 0 1 -2.50425 2.77639 1.17508
612 1 1 0 1 -0.228217 6.9726 23.3054
613 1 1 0 1 0.37109 5.25622 19.0507
614 1 1 0 1 0.828293 12.5177 27.3934
615 1 1 0 1 -15.814 5.47583 15.8268
616 1 1 0 1 -4.09296 10.9674 19.1725
617 1 1 0 1 -3.34935 -0.883761 -4.99643
618 1 1 0 1 -12.2218 2.09407 0.236267
619 1 1 0 1 3.70603 15.1407 -1.35244
620 1 1 0 1 2.57324 8.47911 3.34682
621 1 1 0 1 2.27321 7.69118 5.93974
622 1 1 0 1 -9.80572 4.23873 3.16731
623 1 1 0 1 2.69727 4.34978 3.97135
624 1 1 0 1 -3.18383 9.45228 -0.614725
625 1 1 0 1 -3.6224 1.17572 1.67567
626 1 1 0 1 -2.08943 3.41485 3.50028
627 1 1 0 1 -10.9195 -5.78041 16.4243
628 1 1 0 1 1.7972 -3.53453 6.27428
629 1 1 0 1 2.63208 9.95729 20.532
630 1 1 0 1 2.36707 15.3815 22.7724
631 1 1 0 1 1.97903 9.7214 17.174
632 1 1 0 1 7.8793 8.16787 17.3138
633 1 1 0 1 -6.87808 10.9486 19.9349
634 1 1 0 1 -2.3396 3.46208 14.5279
635 1 1 0 1 6.006 2.71463 17.6626
636 1 1 0 1 6.42014 0.585409 20.6193
637 1 1 0 1 -8.87096 4.09509 20.516
638 1 1 0 1 -2.57415 6.21747 21.8291
639 1 1 0 1 -1.65624 -1.05139 9.81892
640 1 1 0 1 -5.85417 18.0416 7.46217
641 1 1 0 1 16.2111 8.11036 -2.30145
642 1 1 0 1 2.10047 19.4022 17.5245
643 1 1 0 1 3.69766 6.88892 18.6779
644 1 1 0 1 -2.34974 7.56969 3.03409
645 1 1 0 1 -3.30125 4.65007 5.6462
646 1 1 0 1 1.445 5.79999 3.08202
647 1 1 0 1 -5.97014 12.6951 1.70832
648 1 1 0 1 -6.74866 9.85851 9.5138
649 1 1 0 1 2.26451 4.33847 0.639799
650 1 1 0 1 3.43684 4.91106 9.04077
651 1 1 0 1 2.71387 4.74534 12.6279
652 1 1 0 1 -2.31373 11.177 18.4638
653 1 1 0 1 0.671131 16.0406 10.4412
654 1 1 0 1 -0.185555 9.68701 15.3284
655 1 1 0 1 1.60251 7.48565 2.25726
656 1 1 0 1 -1.49567 2.59776 12.3366
657 1 1 0 1 2.95298 5.03461 11.4478
658 1 1 0 1 0.61876 9.67162 23.3988
659 1 1 0 1 -10.0819 9.48576 10.0663
660 1 1 0 1 7.4735 8.05383 20.2465
661 1 1 0 1 3.29961 5.98955 2.0167
662 1 1 0 1 -4.0067 9.57514 1.2668
663 1 1 0 1 -5.03096 6.34195 2.57264
664 1 1 0 1 1.60708 9.30459 7.50276
665 1 1 0 1 -5.3462 0.233569 0.62382
666 1 1 0 1 5.54898 9.27639 8.75336
667 1 1 0 1 -1.60461 8.84559 -2.51937
668 1 1 0 1 -6.64916 3.34011 1.09473
669 1 1 0 1 4.635 0.108091 4.06263
670 1 1 0 1 -1.44609 3.2286 9.60871
671 1 1 0 1 2.14581 0.854019 1.75531
672 1 1 0 1 -2.16452 20.5749 10.9891
673 1 1 0 1 -9.78235 17.086 11.286
674 1 1 0 1 1.54037 10.0773 18.1712
675 1 1 0 1 1.67341 7.05959 21.2743
676 1 1 0 1 -6.90174 -0.383519 16.1454
677 1 1 0 1 1.50695 0.496782 16.2911
678 1 1 0 1 6.49517 8.33577 18.4858
679 1 1 0 1 -10.3707 7.72623 16.4129
680 1 1 0 1 1.10976 5.47249 12.9179
681 1 1 0 1 -6.94056 8.52314 19.4176
682 1 1 0 1 8.12068 9.26974 24.9517
683 1 1 0 1 2.40539 14.8108 10.2349
684 1 1 0 1 -7.24434 9.51651 -0.885741
685 1 1 0 1 1.67757 9.11736 1.12313
686 1 1 0 1 -1.19201 5.31367 7.13014
687 1 1 0 1 -0.670807 18.114 5.24614
688 1 1 0 1 -1.53471 14.7502 10.2039
689 1 1 0 1 -2.53131 4.65113 3.25398
690 1 1 0 1 -1.05833 1.72076 14.0448
691 1 1 0 1 -0.503064 9.23028 3.38765
692 1 1 0 1 -8.82041 6.02651 7.16083
693 1 1 0 1 -4.94879 8.67416 20.1343
694 1 1 0 1 -10.9432 11.167 12.1265
695 1 1 0 1 -2.24923 6.73595 17.4047
696 1 1 0 1 -3.78857 10.9413 21.0858
697 1 1 0 1 -2.7873 7.24244 14.3149
698 1 1 0 1 -3.99333 10.5847 13.2465
699 1 1 0 1 7.67165 6.46813 22.7872
700 1 1 0 1 3.28645 16.6691 17.242
701 1 1 0 1 -1.33581 8.98459 17.0745
702 1 1 0 1 -0.393554 5.85056 28.4929
703 1 1 0 1 -2.20881 18.8797 17.1949
704 1 1 0 1 9.10217 23.7591 18.4872
705 1 1 0 1 2.37988 7.46564 2.88727
706 1 1 0 1 0.401013 9.48071 -3.6453
707 1 1 0 1 -3.3917 31.7072 2.53213
708 1 1 0 1 4.49824 2.08326 3.34041
709 1 1 0 1 -6.9702 10.9123 6.68158
710 1 1 0 1 -0.388721 10.6226 -1.17723
711 1 1 0 1 -4.73381 9.52865 3.81523
712 1 1 0 1 -0.661394 10.9974 16.4208
713 1 1 0 1 1.12947 15.9548 2.95902
714 1 1 0 1 -2.5973 16.3107 -3.88924
715 1 1 0 1 -0.0793386 13.1652 14.8435
716 1 1 0 1 -0.336871 13.4072 17.1546
717 1 1 0 1 -1.81348 13.9261 19.7681
718 1 1 0 1 -3.65632 7.46029 14.7648
719 1 1 0 1 -5.49056 8.99995 13.2614
720 1 1 0 1 -2.71027 14.7767 25.8274
721 1 1 0 1 -8.20506 10.9096 10.7646
722 1 1 0 1 0.279553 16.7471 29.511
723 1 1 0 1 -6.01186 10.0708 16.7968
724 1 1 0 1 -0.783313 19.4045 22.1357
725 1 1 0 1 1.06527 13.3572 24.1734
726 1 1 0 1 -8.13294 17.2531 12.2652
727 1 1 0 1 7.43932 15.7818 3.10432
728 1 1 0 1 -0.231655 19.9069 -6.78821
729 1 1 0 1 -1.67753 5.6965 -6.79049
730 1 1 0 1 -5.26783 19.2303 8.25395
731 1 1 0 1 1.67885 21.289 4.37304
732 1 1 0 1 4.42037 14.0716 5.00062
733 1 1 0 1 -3.50871 7.76552 3.14616
734 1 1 0 1 5.06413 4.4317 -0.377566
735 1 1 0 1 -10.693 15.5707 0.576687
736 1 1 0 1 -9.51502 18.623 -2.12824
737 1 1 0 1 1.17686 9.59999 16.28
738 1 1 0 1 7.86625 14.2659 7.88223
739 1 1 0 1 -4.53313 4.26632 18.6937
740 1 1 0 1 -5.73549 6.89488 14.4335
741 1 1 0 1 -1.75448 8.91532 16.0088
742 1 1 0 1 4.11284 7.93036 26.57
743 1 1 0 1 -6.28888 6.76446 17.4846
744 1 1 0 1 4.59965 14.5042 26.0491
745 1 1 0 1 -1.12739 7.81925 15.713
746 1 1 0 1 -2.67819 14.3124 17.6668
747 1 1 0 1 4.15797 10.2367 24.6344
748 1 1 0 1 3.29272 12.7632 29.2585
749 1 1 0 1 3.64374 10.6686 1.11913
750 1 1 0 1 0.196197 7.62827 14.2405
751 1 1 0 1 -11.2721 17.71 8.58428
752 1 1 0 1 -5.07218 11.666 16.2663
753 1 1 0 1 -2.7471 9.19182 13.8812
754 1 1 0 1 3.63665 8.23607 5.68293
755 1 1 0 1 0.224057 18.4757 1.44505
756 1 1 0 1 -6.59617 21.0046 -2.80758
757 1 1 0 1 -1.89589 7.35561 10.7989
758 1 1 0 1 -3.89075 18.7495 10.6645
759 1 1 0 1 -2.80958 17.1289 6.22874
760 1 1 0 1 3.1746 1.07468 16.1549
761 1 1 0 1 -10.1827 16.7999 18.4434
762 1 1 0 1 -6.0737 16.9198 2.51141
763 1 1 0 1 7.1328 22.5492 12.9153
764 1 1 0 1 0.644028 18.9368 12.2876
765 1 1 0 1 -0.829885 12.3678 19.9489
766 1 1 0 1 -4.89769 15.8786 16.5119
767 1 1 0 1 -12.6132 13.6626 20.7639
768 1 1 0 1 -8.14718 13.5437 25.4659
769 1 1 0 1 7.61271 11.5971 19.0648
770 1 1 0 1 -2.75334 18.771 20.0345
771 1 1 0 1 -1.2674 13.8291 6.27297
772 1 1 0 1 -0.288821 8.62737 14.1239
773 1 1 0 1 -4.04255 12.1562 -0.732975
774 1 1 0 1 -0.877341 0.912697 10.9658
775 1 1 0 1 -5.03116 16.4802 -6.51309
776 1 1 0 1 -0.595583 10.4524 12.82
777 1 1 0 1 -1.53546 9.81561 12.3655
778 1 1 0 1 -4.57321 16.4142 11.1436
779 1 1 0 1 -1.35481 18.6564 26.6305
780 1 1 0 1 -6.25048 19.0817 7.2329
781 1 1 0 1 6.4299 20.5106 17.7679
782 1 1 0 1 3.80548 21.6889 14.7421
783 1 1 0 1 -5.77015 15.4314 2.5887
784 1 1 0 1 -6.50448 15.0297 22.6911
785 1 1 0 1 -5.08581 28.2573 15.0244
786 1 1 0 1 -8.04993 10.3004 19.138
787 1 1 0 1 2.33854 10.7558 26.8531
788 1 1 0 1 -13.3211 20.0032 15.651
789 1 1 0 1 -6.26938 16.0649 20.8091
790 1 1 0 1 -2.10699 11.3673 22.6672
791 1 1 0 1 -13.0118 17.5012 18.4032
792 1 1 0 1 -1.55447 8.83763 25.3863
793 1 1 0 1 -9.69637 21.1206 5.41344
794 1 1 0 1 -3.5202 14.4923 5.88256
795 1 1 0 1 7.32132 22.5563 -2.05143
796 1 1 0 1 -0.353795 18.5041 10.7097
797 1 1 0 1 -4.49113 19.8485 -1.04321
798 1 1 0 1 -1.25544 12.7168 2.41332
799 1 1 0 1 -2.60387 13.2541 7.65371
800 1 1 0 1 7.56775 10.6139 5.90208
801 1 1 0 1 9.56194 13.2962 4.56295
802 1 1 0 1 -4.2589 24.4845 9.2332
803 1 1 0 1 1.72979 5.26205 14.5027
804 1 1 0 1 -4.80345 17.3522 12.0541
805 1 1 0 1 -14.9928 16.4335 21.6809
806 1 1 0 1 -3.80696 -3.4263 -1.41923
807 1 1 0 1 5.342 18.4869 15.4394
808 1 1 0 1 -2.53399 19.2793 14.778
809 1 1 0 1 -4.14061 17.3423 12.8566
810 1 1 0 1 -1.15331 15.9774 18.1221