ITEM: TIMESTEP
34000
ITEM: NUMBER OF ATOMS
6752
ITEM: BOX BOUNDS pp pp pp
0.0000000000000000e+00 2.2000000000000000e+01
0.0000000000000000e+00 2.2000000000000000e+01
0.0000000000000000e+00 2.2000000000000000e+01
ITEM: ATOMS id mol type q mass xu yu zu
1 1 1 0 1 -5.88727 -9.28339 7.05343
2 1 1 0 1 -0.867289 6.90679 -4.79684
3 1 1 0 1 -1.53046 3.35593 0.141119
4 1 1 0 1 -9.99724 0.778169 6.08373
5 1 1 0 1 6.80705 4.38009 1.46572
6 1 1 0 1 -15.7586 -2.67677 10.1098
7 1 1 0 1 4.9296 2.12942 5.81055
8 1 1 0 1 1.63824 -4.19555 15.6525
9 1 1 0 1 4.73352 -4.41229 10.6328
10 1 1 0 1 -6.7528 -7.36995 13.5588
11 1 1 0 1 -1.76458 -6.45911 -1.36265
12 1 1 0 1 -3.60874 -2.2912 9.37976
13 1 1 0 1 9.50707 3.19207 14.0854
14 1 1 0 1 -6.18144 9.05965 10.0349
15 1 1 0 1 -6.899 3.10847 9.14533
16 1 1 0 1 -1.93998 -3.84521 18.9466
17 1 1 0 1 -2.02756 -1.44473 14.3873
18 1 1 0 1 -9.73313 -6.48735 25.0913
19 1 1 0 1 -11.8914 2.38734 17.5861
20 1 1 0 1 -8.71639 5.08373 21.8675
21 1 1 0 1 -8.77219 1.04019 18.6341
22 1 1 0 1 0.602535 8.88086 20.0919
23 1 1 0 1 -12.2578 -3.12996 8.79153
24 1 1 0 1 -12.1014 3.86416 4.22217
25 1 1 0 1 0.18998 1.94347 -4.67368
26 1 1 0 1 3.84077 -7.6577 2.91595
27 1 1 0 1 -2.42646 -1.85612 11.4241
28 1 1 0 1 -6.73064 8.63335 0.987733
29 1 1 0 1 -1.96549 -6.0877 14.6017
30 1 1 0 1 -3.11894 1.75995 20.0832
31 1 1 0 1 -3.1927 11.186 7.98477
32 1 1 0 1 -6.42177 -3.82697 2.0728
33 1 1 0 1 -10.0707 0.152642 10.0309
34 1 1 0 1 -7.04511 8.29432 10.0588
35 1 1 0 1 0.237264 8.8865 14.5863
36 1 1 0 1 1.4501 1.41933 9.31484
37 1 1 0 1 -0.646056 1.81416 9.21146
38 1 1 0 1 1.79862 1.85399 22.832
39 1 1 0 1 -1.09383 5.52522 8.67759
40 1 1 0 1 -2.46267 5.88863 20.5433
41 1 1 0 1 -7.29542 -0.693587 14.935
42 1 1 0 1 -2.32034 2.20577 23.5356
43 1 1 0 1 -6.04086 11.0215 14.882
44 1 1 0 1 -2.38479 10.9436 17.2459
45 1 1 0 1 -12.536 7.7876 0.40004
46 1 1 0 1 -6.18209 2.33597 4.96827
47 1 1 0 1 -7.69656 0.615705 5.61526
48 1 1 0 1 -7.17649 13.744 -1.02508
49 1 1 0 1 -7.90072 4.72232 2.21021
50 1 1 0 1 -6.08101 8.23988 0.254009
51 1 1 0 1 -3.71718 -3.50003 2.14987
52 1 1 0 1 4.19704 2.70976 13.4782
53 1 1 0 1 -4.41336 -0.871446 3.83268
54 1 1 0 1 -10.6931 -3.41627 20.3429
55 1 1 0 1 -2.53667 1.71568 5.05073
56 1 1 0 1 -6.54935 1.41794 3.73596
57 1 1 0 1 -4.79431 9.34241 14.3266
58 1 1 0 1 -2.58665 9.69116 9.1772
59 1 1 0 1 -4.77231 3.76613 7.46466
60 1 1 0 1 2.99025 3.10162 24.9589
61 1 1 0 1 -5.76287 7.76611 14.8018
62 1 1 0 1 0.529681 0.352651 24.4157
63 1 1 0 1 1.85756 9.86373 2.28567
64 1 1 0 1 -0.811885 1.83215 16.866
65 1 1 0 1 -13.6221 -4.09416 19.8355
66 1 1 0 1 -1.40501 9.12744 27.2941
67 1 1 0 1 -11.0007 -3.27635 -3.70079
68 1 1 0 1 -4.2083 4.55268 -13.9908
69 1 1 0 1 -1.07849 9.47552 2.27461
70 1 1 0 1 -1.33449 13.6991 1.50777
71 1 1 0 1 0.799113 -1.31109 2.29881
72 1 1 0 1 -9.64457 8.82035 3.62582
73 1 1 0 1 1.50478 0.818315 4.76727
74 1 1 0 1 -3.50008 1.25749 14.2425
75 1 1 0 1 -3.21204 -0.193818 4.43561
76 1 1 0 1 -0.414606 -6.36988 9.45007
77 1 1 0 1 -10.5342 -3.09049 5.95999
78 1 1 0 1 -2.66329 6.51025 7.39387
79 1 1 0 1 -1.70291 6.60887 13.2169
80 1 1 0 1 -1.09838 -5.50262 11.7174
81 1 1 0 1 2.19596 3.62019 12.8951
82 1 1 0 1 -3.00394 -4.75368 13.3955
83 1 1 0 1 -3.06511 -1.92863 16.878
84 1 1 0 1 -0.97971 6.28836 13.8698
85 1 1 0 1 -2.44008 -3.59808 27.3642
86 1 1 0 1 1.42239 -8.72523 17.538
87 1 1 0 1 -2.7782 5.38984 18.689
88 1 1 0 1 -1.94195 5.66248 15.1075
89 1 1 0 1 -5.60536 10.7075 -0.906693
90 1 1 0 1 -1.29105 13.5025 12.5694
91 1 1 0 1 -1.73388 -5.71328 13.5115
92 1 1 0 1 6.13147 3.74044 3.39625
93 1 1 0 1 2.81071 6.49544 -0.0211041
94 1 1 0 1 -2.25145 -8.51256 0.526511
95 1 1 0 1 -2.15839 10.0997 6.54244
96 1 1 0 1 2.4692 3.33357 0.0741879
97 1 1 0 1 -11.7543 9.06914 13.9906
98 1 1 0 1 5.90953 6.76049 4.03134
99 1 1 0 1 -0.218624 6.88678 4.78217
100 1 1 0 1 -2.76401 4.41286 3.62094
101 1 1 0 1 -5.8614 2.22829 10.8472
102 1 1 0 1 -5.77087 3.24172 9.09239
103 1 1 0 1 -11.0867 12.1919 9.847
104 1 1 0 1 -5.09384 16.989 15.4127
105 1 1 0 1 -1.47105 2.46931 2.61259
106 1 1 0 1 -0.869694 2.69292 19.2484
107 1 1 0 1 -7.82742 9.01706 17.4605
108 1 1 0 1 9.6984 6.34054 12.6929
109 1 1 0 1 -12.778 4.23526 25.1781
110 1 1 0 1 -6.30072 2.01572 22.291
111 1 1 0 1 -8.82173 0.576244 -0.622662
112 1 1 0 1 -4.59597 11.6044 -4.38721
113 1 1 0 1 -1.44484 6.72783 15.3595
114 1 1 0 1 2.99882 7.32607 8.71464
115 1 1 0 1 -5.97737 11.852 2.99459
116 1 1 0 1 -0.230419 13.2769 10.2228
117 1 1 0 1 -2.08307 8.09884 3.15051
118 1 1 0 1 0.0118923 6.80453 0.508971
119 1 1 0 1 -10.963 9.74784 8.62434
120 1 1 0 1 -1.37672 0.631611 1.67369
121 1 1 0 1 -4.73603 4.06354 -0.92391
122 1 1 0 1 1.26733 5.24887 9.65819
123 1 1 0 1 -5.62195 2.09264 14.5069
124 1 1 0 1 -10.9683 8.78375 16.107
125 1 1 0 1 -8.36332 6.87647 4.65616
126 1 1 0 1 -6.88791 6.25039 20.9668
127 1 1 0 1 -0.314733 7.04691 14.5268
128 1 1 0 1 -13.0398 9.19909 11.9104
129 1 1 0 1 -5.08174 5.44278 24.6874
130 1 1 0 1 -3.1174 2.13386 11.6606
131 1 1 0 1 -10.1475 3.84432 4.19393
132 1 1 0 1 -7.92999 3.87419 23.5728
133 1 1 0 1 6.00842 6.00604 2.98389
134 1 1 0 1 -7.86572 11.6453 4.1124
135 1 1 0 1 -6.43904 1.77946 2.35089
136 1 1 0 1 -1.35487 15.891 2.96702
137 1 1 0 1 -7.35288 3.13486 10.2622
138 1 1 0 1 -10.5051 10.0707 19.4323
139 1 1 0 1 3.12976 6.14144 5.54134
140 1 1 0 1 -13.5341 14.0351 0.272841
141 1 1 0 1 6.06388 4.93365 0.588792
142 1 1 0 1 -0.467781 1.94303 10.9532
143 1 1 0 1 0.511114 -3.41724 9.4503
144 1 1 0 1 -1.13023 -1.66367 9.22035
145 1 1 0 1 -5.83847 9.28516 23.2138
146 1 1 0 1 -9.32438 7.12965 20.9802
147 1 1 0 1 1.16685 24.506 17.5125
148 1 1 0 1 -2.99535 13.8816 11.6241
149 1 1 0 1 -11.0752 -1.59386 20.1928
150 1 1 0 1 -7.48629 8.48895 6.27427
151 1 1 0 1 -4.89048 8.22943 18.7879
152 1 1 0 1 -5.255 -0.265968 20.2838
153 1 1 0 1 -3.29905 10.6587 19.9739
154 1 1 0 1 -1.7874 5.07172 20.4488
155 1 1 0 1 -0.831954 3.22622 -8.46406
156 1 1 0 1 -1.66092 4.00295 -2.13736
157 1 1 0 1 -4.73035 13.9736 1.46774
158 1 1 0 1 -3.2433 15.4644 4.25583
159 1 1 0 1 -9.58099 7.00198 -0.0138753
160 1 1 0 1 -4.57607 4.44384 3.12627
161 1 1 0 1 0.594003 12.5612 8.23936
162 1 1 0 1 -6.44594 5.1231 6.1535
163 1 1 0 1 2.90897 10.9483 2.22703
164 1 1 0 1 -9.36788 6.48049 12.771
165 1 1 0 1 0.408443 -0.993828 13.3386
166 1 1 0 1 -9.21278 13.1222 22.5706
167 1 1 0 1 -7.024 17.3239 18.1726
168 1 1 0 1 -9.02854 4.958 20.7418
169 1 1 0 1 -14.1631 14.1522 11.775
170 1 1 0 1 3.70051 6.28728 21.6409
171 1 1 0 1 -3.15662 17.3047 27.3704
172 1 1 0 1 0.373934 5.93417 19.4312
173 1 1 0 1 -4.29097 2.70411 14.4179
174 1 1 0 1 7.6096 6.00413 24.71
175 1 1 0 1 -4.68306 6.43799 17.3487
176 1 1 0 1 4.01763 0.924595 24.4728
177 1 1 0 1 -4.91977 9.10307 -2.29806
178 1 1 0 1 2.03725 21.5171 9.25786
179 1 1 0 1 -6.63837 18.2752 0.606007
180 1 1 0 1 -1.79046 20.4799 -4.99712
181 1 1 0 1 -15.7096 17.2592 1.68268
182 1 1 0 1 -7.01427 15.3069 4.60969
183 1 1 0 1 -6.88948 17.8767 -1.96732
184 1 1 0 1 -2.51241 8.7826 8.31161
185 1 1 0 1 -11.6313 -1.38533 10.9328
186 1 1 0 1 -12.769 13.4979 11.9682
187 1 1 0 1 -5.61857 17.4232 17.3852
188 1 1 0 1 0.393792 -1.25039 12.0702
189 1 1 0 1 -7.80556 14.6342 18.7016
190 1 1 0 1 -4.87805 2.6672 15.2399
191 1 1 0 1 -4.6646 9.52423 30.0091
192 1 1 0 1 -4.50776 3.8004 8.70765
193 1 1 0 1 1.69911 6.38071 19.3239
194 1 1 0 1 7.72289 7.7719 17.1371
195 1 1 0 1 -5.42944 3.60523 12.1728
196 1 1 0 1 -3.3562 8.84244 20.5738
197 1 1 0 1 -4.92917 7.16436 14.3754
198 1 1 0 1 8.82366 5.43803 28.6206
199 1 1 0 1 -2.21542 14.004 3.12391
200 1 1 0 1 5.46255 10.0461 8.08228
201 1 1 0 1 -1.2302 18.3197 -3.8063
202 1 1 0 1 -5.68824 1.82024 4.07903
203 1 1 0 1 -4.13053 8.48633 6.71785
204 1 1 0 1 0.407381 7.10335 15.3347
205 1 1 0 1 6.49728 3.40583 -0.197403
206 1 1 0 1 5.80152 6.71783 7.4168
207 1 1 0 1 -1.02089 6.16814 5.58273
208 1 1 0 1 1.90142 6.3733 7.00378
209 1 1 0 1 1.55313 -0.289146 -1.6065
210 1 1 0 1 -4.64866 6.25705 0.367434
211 1 1 0 1 -0.654423 10.6735 3.71422
212 1 1 0 1 -10.4632 8.99702 14.423
213 1 1 0 1 -2.98238 11.9629 24.3524
214 1 1 0 1 -17.5982 26.9938 17.4999
215 1 1 0 1 -7.36146 17.2098 11.2103
216 1 1 0 1 -6.56213 10.1457 17.1094
217 1 1 0 1 -10.2779 14.4961 27.3277
218 1 1 0 1 2.09026 8.40291 27.6845
219 1 1 0 1 2.18222 13.5368 24.7531
220 1 1 0 1 -0.640349 17.6261 18.8112
221 1 1 0 1 16.8221 5.66459 -2.13377
222 1 1 0 1 -4.97484 16.6644 -2.05647
223 1 1 0 1 -11.5568 11.4939 0.544534
224 1 1 0 1 -3.33153 11.3396 -4.5837
225 1 1 0 1 -11.933 21.4498 6.29623
226 1 1 0 1 -12.0545 9.78355 4.56642
227 1 1 0 1 -5.95802 18.636 9.36777
228 1 1 0 1 -6.25609 14.8833 0.421669
229 1 1 0 1 6.62086 10.2913 11.5358
230 1 1 0 1 -3.83598 12.8205 12.7371
231 1 1 0 1 -1.78117 5.35576 12.6792
232 1 1 0 1 1.0009 -1.31494 9.65626
233 1 1 0 1 -1.54351 9.59439 14.5764
234 1 1 0 1 -11.4158 13.9347 10.9428
235 1 1 0 1 -5.24011 9.93961 16.2894
236 1 1 0 1 -5.38876 6.85674 10.2271
237 1 1 0 1 -13.6418 12.8083 20.8592
238 1 1 0 1 -8.28192 11.2961 16.652
239 1 1 0 1 -1.99634 8.4921 13.681
240 1 1 0 1 -5.09392 14.9721 11.9703
241 1 1 0 1 -4.43099 8.02374 16.3002
242 1 1 0 1 -5.12502 -3.48758 21.491
243 1 1 0 1 -3.4499 8.01815 -3.80407
244 1 1 0 1 -4.34795 6.12625 -3.65656
245 1 1 0 1 -8.32712 12.1795 -2.61622
246 1 1 0 1 -1.54423 10.0042 4.58716
247 1 1 0 1 -6.73477 13.2774 8.9853
248 1 1 0 1 -0.123809 -0.942173 5.38751
249 1 1 0 1 -10.6181 8.67198 6.37685
250 1 1 0 1 0.690202 10.9917 5.71215
251 1 1 0 1 -2.01203 7.73537 7.00802
252 1 1 0 1 -2.74538 4.21581 6.12853
253 1 1 0 1 1.42832 0.605248 17.7662
254 1 1 0 1 0.0551654 9.56517 22.7659
255 1 1 0 1 -8.08819 3.12518 4.73825
256 1 1 0 1 -9.30719 19.3161 9.14637
257 1 1 0 1 2.25957 17.617 17.6151
258 1 1 0 1 -0.790005 11.9624 21.2612
259 1 1 0 1 -2.20956 14.186 20.4183
260 1 1 0 1 -1.21888 14.2678 24.7892
261 1 1 0 1 -5.43437 10.8928 15.7037
262 1 1 0 1 -5.49759 6.55952 16.0714
263 1 1 0 1 7.78092 14.9246 16.632
264 1 1 0 1 -0.929063 14.2864 19.7107
265 1 1 0 1 -5.62121 16.7719 2.45737
266 1 1 0 1 4.89546 20.9689 5.44943
267 1 1 0 1 2.49244 16.8509 11.2463
268 1 1 0 1 -4.72957 3.26911 -2.54812
269 1 1 0 1 -3.22548 4.39561 10.8269
270 1 1 0 1 -5.9165 16.0413 -1.43408
271 1 1 0 1 -4.30647 5.34332 7.24161
272 1 1 0 1 -8.78853 9.77618 18.2315
273 1 1 0 1 -4.98587 13.9719 11.9248
274 1 1 0 1 -13.8594 8.98106 7.55574
275 1 1 0 1 -11.0038 0.0622762 9.65536
276 1 1 0 1 -0.725782 14.2942 11.9545
277 1 1 0 1 -8.46955 8.19746 11.2062
278 1 1 0 1 3.49184 13.4493 17.6297
279 1 1 0 1 -4.85167 19.8296 14.372
280 1 1 0 1 -8.26957 14.1494 10.7283
281 1 1 0 1 1.17907 14.132 26.9004
282 1 1 0 1 -2.25533 13.0877 10.4397
283 1 1 0 1 3.29705 9.16705 14.6215
284 1 1 0 1 -4.53761 15.2448 16.0448
285 1 1 0 1 -8.80067 4.46823 16.7945
286 1 1 0 1 -7.20396 12.9278 22.8538
287 1 1 0 1 -9.46132 21.0218 5.75916
288 1 1 0 1 -4.63996 14.2799 -3.08675
289 1 1 0 1 -12.6598 0.359781 7.12086
290 1 1 0 1 -4.69721 11.737 6.23751
291 1 1 0 1 -6.11599 -1.26379 12.4557
292 1 1 0 1 -6.24919 12.8873 11.0903
293 1 1 0 1 3.95645 8.43073 6.8997
294 1 1 0 1 -1.84991 10.4059 9.42064
295 1 1 0 1 -0.709532 9.59347 3.86718
296 1 1 0 1 -2.40113 17.2335 12.3066
297 1 1 0 1 -7.74103 14.3897 7.68956
298 1 1 0 1 -5.46763 7.69097 16.7501
299 1 1 0 1 -4.84167 18.0466 12.9478
300 1 1 0 1 2.52912 20.9019 20.5153
301 1 1 0 1 0.395732 19.1727 16.9553
302 1 1 0 1 -6.71351 16.2049 13.0199
303 1 1 0 1 -9.84544 12.5158 3.32428
304 1 1 0 1 4.58937 3.40723 9.78614
305 1 1 0 1 8.78296 12.0842 25.292
306 1 1 0 1 -6.01467 13.9093 20.9569
307 1 1 0 1 -2.07384 14.6327 18.6699
308 1 1 0 1 7.36782 29.1672 28.4753
309 1 1 0 1 0.679335 13.0016 4.82734
310 1 1 0 1 0.124811 14.8387 8.73868
311 1 1 0 1 -9.76201 9.43098 -4.10122
312 1 1 0 1 -2.91675 6.08197 3.04531
313 1 1 0 1 -12.7843 11.1476 2.41505
314 1 1 0 1 -3.75109 8.65896 3.09644
315 1 1 0 1 2.7131 9.30004 6.02925
316 1 1 0 1 -10.5591 23.1605 10.2846
317 1 1 0 1 -5.61723 15.2069 11.0442
318 1 1 0 1 -3.18677 18.9033 13.5397
319 1 1 0 1 -3.6918 11.4049 5.74405
320 1 1 0 1 5.22387 18.8096 4.40124
321 1 1 0 1 -2.51061 13.3291 16.7695
322 1 1 0 1 -4.01055 12.0798 21.5149
323 1 1 0 1 -4.29496 13.1546 5.97056
324 1 1 0 1 5.68929 5.21516 5.02376
325 1 1 0 1 -0.36615 12.3727 5.85962
326 1 1 0 1 -4.9254 12.2429 18.4691
327 1 1 0 1 -8.66935 16.0702 18.087
328 1 1 0 1 -0.724557 16.7371 21.506
329 1 1 0 1 0.784066 15.8457 22.1571
330 1 1 0 1 3.89446 21.1301 24.1182
331 1 1 0 1 -10.8727 13.3463 4.41817
332 1 1 0 1 -4.53121 17.3655 3.53213
333 1 1 0 1 2.63734 7.14461 7.60921
334 1 1 0 1 -7.87219 19.79 -5.00786
335 1 1 0 1 5.08995 12.3678 10.4512
336 1 1 0 1 -13.5264 15.4085 3.37782
337 1 1 0 1 -6.22626 10.846 1.0864
338 1 1 0 1 -4.67778 13.1789 4.53174
339 1 1 0 1 -8.30955 14.609 5.02686
340 1 1 0 1 -4.98072 2.14265 8.58819
341 1 1 0 1 -3.81445 11.6499 9.76484
342 1 1 0 1 0.115495 17.7452 8.30943
343 1 1 0 1 5.546 10.3571 4.90112
344 1 1 0 1 -13.2434 12.0032 11.0792
345 1 1 0 1 -4.08849 20.2403 13.7549
346 1 1 0 1 -2.38598 16.6971 21.3641
347 1 1 0 1 2.00425 24.6178 9.92146
348 1 1 0 1 -3.51137 13.6549 16.7145
349 1 1 0 1 0.0258145 21.4663 17.3654
350 1 1 0 1 -0.228133 13.4452 13.9135
351 1 1 0 1 -12.892 16.6112 25.8246
352 1 1 0 1 -1.37489 16.292 28.9878
353 1 1 0 1 -11.4411 18.4394 -7.91184
354 1 1 0 1 -1.90762 17.1842 0.268625
355 1 1 0 1 -1.4001 8.50733 8.98469
356 1 1 0 1 -6.57126 10.7863 7.69491
357 1 1 0 1 -1.28273 19.7244 -1.3048
358 1 1 0 1 -9.73522 19.2835 3.16724
359 1 1 0 1 -9.38071 15.3169 20.8017
360 1 1 0 1 4.02839 11.1896 0.184674
361 1 1 0 1 2.00074 14.5994 11.9997
362 1 1 0 1 -2.07926 14.1238 8.04068
363 1 1 0 1 -3.02424 14.0494 9.14693
364 1 1 0 1 6.91766 6.39583 7.47655
365 1 1 0 1 -2.81414 -4.61469 3.91663
366 1 1 0 1 -2.74049 12.2223 11.9985
367 1 1 0 1 -1.33495 3.09504 15.1753
368 1 1 0 1 -3.36492 18.0133 16.4089
369 1 1 0 1 -2.76791 11.7096 9.98435
370 1 1 0 1 -1.89435 4.53953 5.60523
371 1 1 0 1 -16.3214 20.6682 25.3662
372 1 1 0 1 -1.73188 19.5346 22.8053
373 1 1 0 1 -9.50472 14.0438 17.3486
374 1 1 0 1 1.83921 15.644 28.3496
375 1 1 0 1 -9.66627 2.3272 5.76685
376 1 1 0 1 -10.6716 16.5183 0.0533778
377 1 1 0 1 -10.5918 6.27534 -2.28322
378 1 1 0 1 -6.25547 16.1727 10.9835
379 1 1 0 1 0.4784 11.3699 -9.32202
380 1 1 0 1 -3.65869 15.4495 0.875143
381 1 1 0 1 -8.31363 17.233 6.02768
382 1 1 0 1 -14.5152 14.6571 14.0257
383 1 1 0 1 -2.6878 22.8142 7.63655
384 1 1 0 1 2.8332 12.088 10.29
385 1 1 0 1 -11.5358 20.704 5.38064
386 1 1 0 1 0.349488 12.0536 13.6396
387 1 1 0 1 -6.56011 9.22788 17.9632
388 1 1 0 1 -7.67732 17.6924 15.7978
389 1 1 0 1 -4.60757 19.8706 15.832
390 1 1 0 1 3.45717 9.78523 21.9912
391 1 1 0 1 -5.83196 26.3476 16.5798
392 1 1 0 1 -6.70629 16.7563 10.2777
393 1 1 0 1 -6.24612 7.12132 10.5516
394 1 1 0 1 -2.58474 13.1134 21.1662
395 1 1 0 1 -7.56379 16.4528 9.26964
396 1 1 0 1 -0.86905 7.26055 20.2063
397 1 1 0 1 -6.42499 18.4643 -1.13425
398 1 1 0 1 -4.09385 28.4068 -0.481848
399 1 1 0 1 -0.590371 15.1212 2.89045
400 1 1 0 1 -3.67361 12.4016 3.97451
401 1 1 0 1 -4.20757 8.09909 9.39553
402 1 1 0 1 -8.0203 10.1937 16.5875
403 1 1 0 1 -2.01111 13.3918 8.86068
404 1 1 0 1 -2.50075 31.5292 7.48071
405 1 1 0 1 -9.69904 13.8506 6.72904
406 1 1 0 1 -10.53 19.0779 8.66817
407 1 1 0 1 -0.915461 19.8256 8.32148
408 1 1 0 1 -12.8704 20.8345 16.1951
409 1 1 0 1 -9.55319 10.1657 12.2789
410 1 1 0 1 -5.92223 6.17469 3.7386
411 1 1 0 1 7.65297 17.7911 3.02958
412 1 1 0 1 -13.2924 14.0551 3.25786
413 1 1 0 1 -13.5071 6.27869 19.6172
414 1 1 0 1 -5.00228 13.5248 20.1418
415 1 1 0 1 1.36754 16.6178 29.4691
416 1 1 0 1 -4.98841 18.7357 27.0209
417 1 1 0 1 -2.39259 20.9971 25.7599
418 1 1 0 1 0.797567 17.0756 26.5466
419 1 1 0 1 -6.818 19.4242 0.540891
420 1 1 0 1 -5.20121 24.8301 20.71
421 1 1 0 1 -4.5871 15.824 8.60128
422 1 1 0 1 -3.86693 6.48794 3.24797
423 1 1 0 1 -0.864779 32.4929 12.4716
424 1 1 0 1 -2.11382 17.77 17.5277
425 1 1 0 1 -1.47991 12.1226 2.97596
426 1 1 0 1 -10.6846 19.2042 -2.54866
427 1 1 0 1 -4.42403 26.9883 -1.61317
428 1 1 0 1 3.24966 15.3566 3.03741
429 1 1 0 1 -5.36721 27.7284 8.73114
430 1 1 0 1 -0.536738 16.6631 7.82456
431 1 1 0 1 -7.56226 11.3865 12.6084
432 1 1 0 1 -3.98322 23.8064 9.55214
433 1 1 0 1 -3.87222 22.7188 15.3397
434 1 1 0 1 -5.72477 6.04562 6.19628
435 1 1 0 1 -5.65051 14.9033 21.5887
436 1 1 0 1 -5.72344 9.94137 12.1441
437 1 1 0 1 1.69593 23.7534 14.741
438 1 1 0 1 -8.69141 17.5056 21.0781
439 1 1 0 1 -2.39971 23.9092 22.4848
440 1 1 0 1 -2.40482 14.6383 22.7813
441 1 1 0 1 -4.85736 20.8272 -6.62234
442 1 1 0 1 -10.9683 19.5888 3.38229
443 1 1 0 1 -3.79986 11.6726 -3.63358
444 1 1 0 1 -0.0119063 23.0379 6.72732
445 1 1 0 1 -2.36799 18.2591 2.71611
446 1 1 0 1 0.794476 9.69318 15.1794
447 1 1 0 1 -1.62541 9.72568 8.55415
448 1 1 0 1 -6.13444 16.9954 11.9919
449 1 1 0 1 -0.369893 16.9415 12.1976
450 1 1 0 1 0.660656 12.244 25.3213
451 1 1 0 1 -6.28715 12.2706 12.1047
452 1 1 0 1 -6.93994 22.954 20.1177
453 1 1 0 1 -2.68474 13.2502 15.4324
454 1 1 0 1 5.39969 19.3367 12.5873
455 1 1 0 1 -4.37627 3.23236 -0.107876
456 1 1 0 1 -3.00086 22.3624 20.0439
457 1 1 0 1 -9.06826 19.5467 18.056
458 1 1 0 1 -11.0471 14.3279 16.6817
459 1 1 0 1 -9.5619 15.3029 14.3731
460 1 1 0 1 -4.41103 17.1487 20.7117
461 1 1 0 1 4.37537 16.1259 10.9835
462 1 1 0 1 8.69251 24.9048 25.0431
463 1 1 0 1 3.97935 20.2259 -1.03454
464 1 1 0 1 0.991151 24.07 8.24579
465 1 1 0 1 7.35795 24.8763 -3.77533
466 1 1 0 1 -3.36055 28.3193 -2.13772
467 1 1 0 1 -3.50349 20.586 11.0266
468 1 1 0 1 -5.72735 24.2524 3.02531
469 1 1 0 1 0.156379 15.2829 17.6279
470 1 1 0 1 -0.288847 18.2224 16.3606
471 1 1 0 1 5.3927 8.30256 6.77117
472 1 1 0 1 6.60147 30.0333 12.9304
473 1 1 0 1 -5.23693 20.7856 13.084
474 1 1 0 1 2.02722 14.0214 12.8736
475 1 1 0 1 -2.56828 16.2496 15.4034
476 1 1 0 1 8.99757 28.4148 25.4566
477 1 1 0 1 2.88917 24.9182 11.9839
478 1 1 0 1 6.86505 24.2479 20.5355
479 1 1 0 1 -8.81377 35.4716 8.05617
480 1 1 0 1 7.70695 22.6512 18.7465
481 1 1 0 1 -2.24125 21.1954 16.3733
482 1 1 0 1 -2.92405 29.6965 16.1994
483 1 1 0 1 1.00405 21.5288 24.7752
484 1 1 0 1 -6.71683 23.065 16.7173
485 1 1 0 1 -2.73527 -7.89237 1.90376
486 1 1 0 1 -2.95474 6.34794 -9.14881
487 1 1 0 1 -1.67381 3.09343 1.30538
488 1 1 0 1 -8.04337 -4.64286 3.31321
489 1 1 0 1 -0.633583 -0.0380674 -3.82883
490 1 1 0 1 -9.02891 -4.2509 8.37568
491 1 1 0 1 -3.41551 1.83011 3.91836
492 1 1 0 1 -1.40698 -14.1372 14.2332
493 1 1 0 1 2.37888 -0.417172 14.2128
494 1 1 0 1 -5.62963 2.79623 7.15081
495 1 1 0 1 -4.52952 -1.60015 19.7352
496 1 1 0 1 -0.0718088 8.15199 15.5929
497 1 1 0 1 -0.458218 -7.1635 16.5778
498 1 1 0 1 1.679 10.491 8.59513
499 1 1 0 1 2.57875 10.7691 9.24923
500 1 1 0 1 -5.79647 -9.32564 16.1551
501 1 1 0 1 0.593566 0.352088 7.353
502 1 1 0 1 -3.88548 -8.99901 18.2333
503 1 1 0 1 -4.59115 6.79078 8.68384
504 1 1 0 1 2.44822 -4.07479 8.12415
505 1 1 0 1 -3.57838 -4.40337 12.0111
506 1 1 0 1 -3.10489 10.3436 12.6418
507 1 1 0 1 2.11801 1.78236 -3.29104
508 1 1 0 1 -2.40393 3.05283 2.20415
509 1 1 0 1 -4.04813 5.41749 -0.288216
510 1 1 0 1 -14.9016 -12.1882 -2.67528
511 1 1 0 1 6.58282 1.30272 7.84413
512 1 1 0 1 -6.69953 19.3221 7.67523
513 1 1 0 1 -9.24432 -0.258977 7.85348
514 1 1 0 1 -2.45768 -2.21776 -1.50485
515 1 1 0 1 4.49541 9.04059 -2.89145
516 1 1 0 1 -1.98378 11.667 8.10591
517 1 1 0 1 -1.91887 -1.92879 8.09649
518 1 1 0 1 -1.74588 2.50711 7.8542
519 1 1 0 1 4.37861 0.920924 19.3347
520 1 1 0 1 3.42178 -3.9068 12.0904
521 1 1 0 1 -0.0475597 1.72646 10.1024
522 1 1 0 1 -6.95519 2.14991 9.90151
523 1 1 0 1 1.5521 2.55244 12.4542
524 1 1 0 1 3.19398 3.82463 11.1087
525 1 1 0 1 -2.86064 0.150273 22.9792
526 1 1 0 1 -1.30933 -2.71851 27.0311
527 1 1 0 1 -1.54813 10.1257 20.3858
528 1 1 0 1 1.08218 -0.0983683 27.0196
529 1 1 0 1 6.24779 10.8278 10.6439
530 1 1 0 1 7.11928 -5.22886 -7.47968
531 1 1 0 1 3.05123 13.559 -0.35775
532 1 1 0 1 -1.98891 -5.31798 4.75074
533 1 1 0 1 -6.80344 3.46377 -4.42534
534 1 1 0 1 -5.73557 1.25312 2.84991
535 1 1 0 1 0.548526 8.52061 0.225275
536 1 1 0 1 -8.01627 15.216 -1.83812
537 1 1 0 1 0.0645058 6.94383 12.4444
538 1 1 0 1 -0.0359595 2.48966 11.7
539 1 1 0 1 2.46045 10.1931 4.48404
540 1 1 0 1 1.90168 8.28616 10.154
541 1 1 0 1 -6.62424 3.87206 9.90696
542 1 1 0 1 -2.18907 4.9936 11.5383
543 1 1 0 1 -0.0853528 12.8665 4.15261
544 1 1 0 1 3.39731 8.5121 8.66655
545 1 1 0 1 -2.04183 9.35742 10.4094
546 1 1 0 1 -0.235393 0.325136 10.0216
547 1 1 0 1 -2.54445 -1.51955 17.7214
548 1 1 0 1 7.16508 6.48034 27.6992
549 1 1 0 1 0.647503 2.18746 26.9453
550 1 1 0 1 -5.74555 9.75568 26.3155
551 1 1 0 1 -6.65171 4.35782 -6.94824
552 1 1 0 1 -8.30254 -0.88642 -5.13437
553 1 1 0 1 0.78607 9.5128 -0.230033
554 1 1 0 1 2.48152 4.29296 1.08836
555 1 1 0 1 -1.82119 6.70954 -7.55526
556 1 1 0 1 -3.29934 2.65485 3.02556
557 1 1 0 1 3.73754 7.33832 -0.165381
558 1 1 0 1 4.80957 6.33267 7.1208
559 1 1 0 1 -1.16873 -4.2911 11.5409
560 1 1 0 1 -3.6753 -4.03951 -1.50623
561 1 1 0 1 2.49349 5.39763 14.4623
562 1 1 0 1 2.44551 4.67444 24.4174
563 1 1 0 1 -0.758452 3.74456 20.9901
564 1 1 0 1 -4.94908 -2.2099 9.04563
565 1 1 0 1 12.0704 5.64927 17.2104
566 1 1 0 1 3.23996 5.11911 7.78192
567 1 1 0 1 -0.0864635 6.03634 17.125
568 1 1 0 1 10.726 3.14015 13.4833
569 1 1 0 1 4.65177 4.92018 18.6657
570 1 1 0 1 2.57786 9.18656 29.4673
571 1 1 0 1 5.0068 5.20187 20.8233
572 1 1 0 1 2.89572 1.93368 19.4733
573 1 1 0 1 1.08309 0.893213 -7.28433
574 1 1 0 1 -7.90521 -1.21338 1.30295
575 1 1 0 1 -4.33519 0.648858 -8.64689
576 1 1 0 1 -1.16088 7.22779 -0.102615
577 1 1 0 1 -6.25188 -1.66132 0.469545
578 1 1 0 1 -0.143305 8.62845 8.78682
579 1 1 0 1 -2.5737 6.43699 0.955597
580 1 1 0 1 1.88405 -2.48177 14.2374
581 1 1 0 1 0.0284817 8.90849 10.9894
582 1 1 0 1 3.28154 9.68088 6.74865
583 1 1 0 1 -10.7596 13.3947 9.78785
584 1 1 0 1 -4.66316 6.13952 13.3948
585 1 1 0 1 -3.61101 0.446464 11.1411
586 1 1 0 1 2.375 11.8582 21.101
587 1 1 0 1 -5.47021 19.0789 15.5715
588 1 1 0 1 -9.24735 5.51076 19.617
589 1 1 0 1 -1.6327 -0.549406 12.2674
590 1 1 0 1 -3.479 6.71501 14.1051
591 1 1 0 1 -7.44681 7.63008 9.10321
592 1 1 0 1 -4.83216 -0.904661 17.4321
593 1 1 0 1 -3.77601 2.8706 13.2738
594 1 1 0 1 -9.2449 -3.99358 20.2867
595 1 1 0 1 -1.57046 -0.397423 -2.2792
596 1 1 0 1 1.53577 10.7618 -0.294509
597 1 1 0 1 -9.10433 2.08147 4.61959
598 1 1 0 1 5.36495 8.3816 0.174208
599 1 1 0 1 2.74092 10.9972 -0.417896
600 1 1 0 1 -4.83839 2.13399 6.49192
601 1 1 0 1 -8.5251 5.72742 1.17383
602 1 1 0 1 -6.94 -5.66647 -0.301485
603 1 1 0 1 1.54795 -5.61422 16.575
604 1 1 0 1 15.8146 10.0932 18.7636
605 1 1 0 1 -5.91301 9.39379 3.39806
606 1 1 0 1 -7.07096 -5.91403 14.4057
607 1 1 0 1 -1.94118 5.96659 6.40264
608 1 1 0 1 1.17638 -4.40636 9.2501
609 1 1 0 1 3.54002 9.14745 13.6832
610 1 1 0 1 1.01709 13.8574 8.12159
611 1 1 0 1 -3.55089 2.48637 0.850519
612 1 1 0 1 -0.592669 4.73508 23.4848
613 1 1 0 1 1.58295 6.76773 17.3134
614 1 1 0 1 -0.511364 11.8653 25.4231
615 1 1 0 1 -14.5572 5.73135 15.5392
616 1 1 0 1 -3.8729 9.66419 19.9439
617 1 1 0 1 -1.87647 1.02716 -3.79659
618 1 1 0 1 -13.314 1.32953 0.248456
619 1 1 0 1 5.5589 15.3304 -1.1005
620 1 1 0 1 3.0691 10.1104 5.41597
621 1 1 0 1 2.01674 7.23086 6.38456
622 1 1 0 1 -8.87845 2.86301 2.75384
623 1 1 0 1 2.54573 3.87048 4.7144
624 1 1 0 1 -3.96689 8.40822 -0.0350294
625 1 1 0 1 -4.22083 2.28336 2.40031
626 1 1 0 1 -1.62783 2.15852 3.56487
627 1 1 0 1 -9.19917 -4.87612 16.9661
628 1 1 0 1 2.61389 -2.84232 7.82455
629 1 1 0 1 1.78807 8.67125 21.0706
630 1 1 0 1 3.09444 15.7652 22.1855
631 1 1 0 1 0.955228 8.81245 15.8652
632 1 1 0 1 8.57297 8.24303 18.2659
633 1 1 0 1 -6.5481 10.7309 19.7823
634 1 1 0 1 -1.63714 4.07569 13.8218
635 1 1 0 1 4.28098 3.1097 17.4242
636 1 1 0 1 6.49397 0.428136 19.2932
637 1 1 0 1 -9.59724 3.77118 20.6834
638 1 1 0 1 -3.11702 4.74871 24.6087
639 1 1 0 1 -0.25138 -2.56927 9.51482
640 1 1 0 1 -4.81875 17.2507 6.56477
641 1 1 0 1 14.1208 8.79469 -3.17445
642 1 1 0 1 1.80716 19.0911 17.4384
643 1 1 0 1 1.79069 8.45387 18.6456
644 1 1 0 1 -0.970376 7.93087 1.92216
645 1 1 0 1 -2.98196 3.76412 4.54525
646 1 1 0 1 1.79865 4.86251 3.49144
647 1 1 0 1 -4.69246 12.246 0.827712
648 1 1 0 1 -6.58779 10.0734 10.0563
649 1 1 0 1 2.08689 2.73533 2.43565
650 1 1 0 1 3.29249 5.60035 8.69698
651 1 1 0 1 3.50888 5.85101 10.887
652 1 1 0 1 -2.96387 10.3865 17.9303
653 1 1 0 1 -0.252732 16.8208 8.85592
654 1 1 0 1 -0.368924 9.64424 15.4154
655 1 1 0 1 1.70067 7.93519 1.92312
656 1 1 0 1 -1.39761 3.4642 12.7385
657 1 1 0 1 3.83448 5.46037 14.3043
658 1 1 0 1 0.808239 11.0764 22.7756
659 1 1 0 1 -9.63934 9.0756 11.492
660 1 1 0 1 6.91226 8.56976 20.8027
661 1 1 0 1 1.62447 5.25853 2.24856
662 1 1 0 1 -4.76613 10.2906 2.2197
663 1 1 0 1 -5.58701 6.54388 2.11199
664 1 1 0 1 0.242897 10.3678 7.64057
665 1 1 0 1 -5.62504 0.265709 -0.456479
666 1 1 0 1 6.30962 9.34984 9.03412
667 1 1 0 1 -0.815466 9.88469 0.105537
668 1 1 0 1 -5.91988 2.9405 0.898377
669 1 1 0 1 4.24544 0.477066 4.66634
670 1 1 0 1 -0.956108 3.60281 10.0834
671 1 1 0 1 2.30608 1.75193 2.14426
672 1 1 0 1 -3.04825 20.6524 12.0529
673 1 1 0 1 -8.45461 17.4072 12.3255
674 1 1 0 1 1.59314 10.1484 17.8287
675 1 1 0 1 1.04777 8.36038 19.2513
676 1 1 0 1 -5.99459 -1.23272 16.3079
677 1 1 0 1 1.75483 1.17556 16.5132
678 1 1 0 1 6.79337 7.25215 19.1396
679 1 1 0 1 -10.1793 7.08208 16.7178
680 1 1 0 1 0.417259 5.02633 13.5971
681 1 1 0 1 -7.09629 8.56451 20.1821
682 1 1 0 1 8.72322 8.50662 25.1069
683 1 1 0 1 3.42734 12.9669 10.0596
684 1 1 0 1 -7.47581 9.98196 -3.00129
685 1 1 0 1 2.38906 9.61879 -0.153374
686 1 1 0 1 -1.27769 7.06522 6.69605
687 1 1 0 1 0.842231 16.8529 3.271
688 1 1 0 1 -3.20195 14.9027 9.69308
689 1 1 0 1 -1.96036 3.92391 4.06336
690 1 1 0 1 0.626114 1.88091 14.7646
691 1 1 0 1 0.853039 9.2349 3.58423
692 1 1 0 1 -8.2163 7.77134 6.39701
693 1 1 0 1 -3.38521 7.27038 19.3692
694 1 1 0 1 -9.84994 12.2189 11.5754
695 1 1 0 1 -2.93746 5.22447 17.6459
696 1 1 0 1 -5.00796 8.66718 20.7903
697 1 1 0 1 -2.39779 7.57074 15.2653
698 1 1 0 1 -4.46468 10.6979 12.448
699 1 1 0 1 6.55363 7.01199 22.3138
700 1 1 0 1 3.91453 16.7627 16.7377
701 1 1 0 1 -1.76569 8.6871 17.7664
702 1 1 0 1 -0.373309 7.25162 28.0486
703 1 1 0 1 -2.66006 17.1767 16.6288
704 1 1 0 1 9.22593 22.6863 17.556
705 1 1 0 1 1.23992 7.947 3.66598
706 1 1 0 1 -0.697083 8.53273 -4.02691
707 1 1 0 1 -2.12647 33.4897 1.685
708 1 1 0 1 4.77012 2.73035 3.76458
709 1 1 0 1 -7.09434 10.4411 5.87021
710 1 1 0 1 -0.131264 13.9153 -3.16718
711 1 1 0 1 -4.08818 9.77551 2.81136
712 1 1 0 1 0.0476806 11.4257 17.2132
713 1 1 0 1 1.13233 13.94 2.53101
714 1 1 0 1 -2.43274 15.87 -2.78339
715 1 1 0 1 0.0219954 13.7636 15.0459
716 1 1 0 1 0.29712 13.1783 17.7193
717 1 1 0 1 -1.64648 13.3917 19.4215
718 1 1 0 1 -3.02336 8.53655 15.6046
719 1 1 0 1 -5.02169 10.309 14.2946
720 1 1 0 1 -4.00832 13.43 25.6449
721 1 1 0 1 -8.22429 11.7575 11.7458
722 1 1 0 1 0.0726785 17.4707 28.0667
723 1 1 0 1 -6.11198 9.01166 16.1852
724 1 1 0 1 -2.82822 17.4761 22.8154
725 1 1 0 1 1.65778 13.2494 23.7469
726 1 1 0 1 -9.76877 17.6816 15.0755
727 1 1 0 1 7.11211 14.6748 3.79923
728 1 1 0 1 -0.087323 20.7448 -6.79083
729 1 1 0 1 -0.534898 5.14001 -8.16289
730 1 1 0 1 -7.03082 17.9632 8.69715
731 1 1 0 1 1.74862 20.9773 3.84256
732 1 1 0 1 4.37308 13.5669 6.06546
733 1 1 0 1 -2.81561 8.14247 4.16168
734 1 1 0 1 5.2418 4.93731 0.0122492
735 1 1 0 1 -11.8429 14.7858 0.923862
736 1 1 0 1 -9.82521 18.8166 -0.960404
737 1 1 0 1 0.62011 8.20419 17.7301
738 1 1 0 1 8.05189 13.4641 8.3751
739 1 1 0 1 -5.12805 2.52317 18.8005
740 1 1 0 1 -4.94506 5.77731 15.4717
741 1 1 0 1 -1.24578 9.69324 17.0126
742 1 1 0 1 5.0906 8.29701 26.1536
743 1 1 0 1 -6.83229 8.06055 16.1391
744 1 1 0 1 4.85613 15.7225 25.9279
745 1 1 0 1 -1.23092 8.56581 15.8924
746 1 1 0 1 -3.80289 14.3117 17.9569
747 1 1 0 1 3.8563 9.97888 24.7578
748 1 1 0 1 4.27438 11.5794 30.6887
749 1 1 0 1 4.8265 10.3075 1.71622
750 1 1 0 1 0.910334 9.05298 13.4949
751 1 1 0 1 -11.7591 16.1921 11.2271
752 1 1 0 1 -5.32264 12.4001 14.6302
753 1 1 0 1 -3.09504 9.93705 13.8124
754 1 1 0 1 3.53931 7.33398 7.03151
755 1 1 0 1 -0.172149 19.7272 1.0688
756 1 1 0 1 -5.81724 21.4119 -3.0452
757 1 1 0 1 -3.24203 7.44382 10.075
758 1 1 0 1 -1.46986 18.7367 9.14081
759 1 1 0 1 -0.96697 17.4905 5.84396
760 1 1 0 1 3.02327 0.707411 16.3703
761 1 1 0 1 -9.52157 17.3475 18.0381
762 1 1 0 1 -6.10399 15.3525 3.92948
763 1 1 0 1 7.59574 21.7245 13.0763
764 1 1 0 1 -0.841424 18.9216 12.9151
765 1 1 0 1 -0.879235 13.0612 18.3401
766 1 1 0 1 -4.96119 16.8213 16.6676
767 1 1 0 1 -11.4579 12.5532 20.8477
768 1 1 0 1 -7.77364 14.5771 26.1724
769 1 1 0 1 7.05274 10.404 20.2991
770 1 1 0 1 -2.62235 18.6057 20.1409
771 1 1 0 1 -1.41913 13.3428 5.7298
772 1 1 0 1 -0.597771 9.81751 13.6211
773 1 1 0 1 -4.68131 11.0347 -0.527469
774 1 1 0 1 -0.823315 1.06948 10.5229
775 1 1 0 1 -5.58043 16.1359 -6.02234
776 1 1 0 1 0.580061 10.3833 12.049
777 1 1 0 1 -0.673858 11.5682 12.0863
778 1 1 0 1 -4.68702 15.5425 11.191
779 1 1 0 1 -1.25378 15.9164 26.2207
780 1 1 0 1 -6.27647 19.4939 6.64633
781 1 1 0 1 5.36209 19.9873 17.4157
782 1 1 0 1 3.37903 20.6047 14.7589
783 1 1 0 1 -4.32707 14.5965 3.11572
784 1 1 0 1 -6.33334 14.6361 23.5111
785 1 1 0 1 -5.63478 28.582 14.8742
786 1 1 0 1 -6.61156 10.9962 18.2475
787 1 1 0 1 2.7938 9.54183 24.9805
788 1 1 0 1 -11.9657 21.2158 16.34
789 1 1 0 1 -6.20627 16.1354 19.4829
790 1 1 0 1 -1.48683 12.0195 22.8809
791 1 1 0 1 -11.8247 16.2457 17.5704
792 1 1 0 1 -1.85778 10.001 25.4226
793 1 1 0 1 -10.1141 21.0304 7.27636
794 1 1 0 1 -3.98693 15.2538 6.19854
795 1 1 0 1 5.95186 22.9817 -3.43279
796 1 1 0 1 0.423447 18.245 10.5584
797 1 1 0 1 -3.99236 19.8172 -0.981182
798 1 1 0 1 0.0851101 13.7631 0.723722
799 1 1 0 1 -2.56672 14.6032 6.95882
800 1 1 0 1 7.05193 11.4231 5.49825
801 1 1 0 1 8.23634 12.0549 5.25795
802 1 1 0 1 -3.78014 22.8373 8.11424
803 1 1 0 1 3.67003 5.90476 15.5384
804 1 1 0 1 -4.39721 17.0473 10.4517
805 1 1 0 1 -13.4297 15.7468 20.4031
806 1 1 0 1 -3.59563 -3.59782 1.1636
807 1 1 0 1 5.63412 18.3067 16.134
808 1 1 0 1 -2.70749 19.4151 15.3268
809 1 1 0 1 -4.62444 16.9535 12.4148