LAMMPS data file via write_data, version 2 Aug 2023, timestep = 1000000, units = lj

6752 atoms
1 atom types

0 22 xlo xhi
0 22 ylo yhi
0 22 zlo zhi

Masses

1 1

Pair Coeffs # lj/cut

1 1 1

Atoms # full

2297 1 1 0 1.4707077570278209 0.4334955477496671 0.9854814792107809 1 0 2
4287 1 1 0 0.05585244379158463 1.651182545306917 0.8820552553111016 2 2 2
6651 1 1 0 0.07543841169558373 0.4615747717320009 0.2798877862400155 3 -1 0
5476 1 1 0 1.671721690038721 1.3715317181467834 1.8172078150071111 0 -1 0
150 1 1 0 1.9083492856154198 1.7105470353912167 0.03849848716068209 -2 1 -1
3057 1 1 0 2.919960175593881 0.5719892793634929 0.007474156223627442 1 2 1
3628 1 1 0 2.6930765575659286 0.7668147285306318 1.7307573015604014 2 1 3
5342 1 1 0 2.999229394917698 1.252368361901311 0.9256077752451826 1 1 1
3097 1 1 0 2.5138565811860274 0.09521414295809282 0.8090509739051495 0 2 2
5988 1 1 0 3.869276057383396 0.9485624741026059 1.5512250520824722 2 1 -1
346 1 1 0 3.603932932189103 1.3688251518235908 0.11929001749850955 -1 1 0
1844 1 1 0 3.7411885806715737 0.16867122233050058 0.7833275416284622 -2 1 2
409 1 1 0 5.860377253079381 0.8302877075862118 0.15424957209255655 3 -1 -1
2954 1 1 0 4.993449946962846 1.4456114480684428 0.6719932399946845 3 0 1
1035 1 1 0 5.733543901478973 0.9641597644026714 1.4796986766617453 0 0 1
2836 1 1 0 4.729009521440114 0.4271218403484795 0.36487201882516784 2 2 0
2016 1 1 0 6.934975162433959 0.781618158894323 1.487360213703596 1 0 2
842 1 1 0 7.367983720303919 1.7996915724397131 1.5269512111687693 -1 1 1
6615 1 1 0 7.408063652301175 0.07386076105700765 0.8529187267546855 -1 0 0
1578 1 1 0 6.658142846414361 1.2664346560490485 0.49114654308367006 0 1 2
5841 1 1 0 9.39715969497982 1.4241227566900567 0.45831186723600886 0 0 0
5255 1 1 0 7.875039777165133 1.3205532893507468 0.6136572115383975 1 -1 2
3014 1 1 0 8.412472344994304 1.2030194072768121 1.639002781044694 0 3 3
5441 1 1 0 10.021634267134704 0.5357609170039 0.37336335571168877 -1 0 1
2162 1 1 0 10.483654086946213 1.4700821615272506 0.737749665850247 1 0 0
1210 1 1 0 10.177969889439161 0.18606735746542896 1.5215868998998088 1 0 1
5351 1 1 0 9.538077461993275 0.9499612473664167 1.591821811725339 1 0 -2
6524 1 1 0 0.268604159705301 3.621614698681442 1.5569251773034785 2 -2 0
901 1 1 0 1.003604329235051 2.737188710907087 0.20672090327234727 1 -1 1
6243 1 1 0 0.771864753265731 2.577931365077477 1.3321852354236137 1 1 0
478 1 1 0 3.1220132886781307 2.4018993988766284 0.8304328243094503 2 1 1
3568 1 1 0 1.8880629142387155 2.8752558462362074 1.7098626463836324 0 1 -1
674 1 1 0 2.8192357703543447 3.1327192898942 1.518421488354343 0 0 0
481 1 1 0 2.765244772611963 2.156467178655568 1.764734027527789 0 2 1
5372 1 1 0 2.0594908753546624 3.125573083047631 0.16113263811608836 1 0 1
34 1 1 0 4.24293553342651 2.161625811165355 0.4526952858546353 -1 -1 0
6333 1 1 0 4.251045380810637 1.9080108353587222 1.4722910920519092 1 3 1
6488 1 1 0 4.086592117094029 3.508761787083989 0.4544987006228772 1 -1 0
115 1 1 0 3.871411583625781 2.908088581703825 1.310880454612338 1 1 0
3043 1 1 0 5.243444173194438 2.4479438789031445 0.9303991333303064 -1 -1 1
2438 1 1 0 6.183706954350747 3.0093810870461835 0.8908702729861808 1 2 2
2454 1 1 0 4.879241400692927 3.623170586293439 1.2834384805202013 1 1 2
4633 1 1 0 7.103631478506933 2.5491142920688397 0.8820482332712609 -1 2 0
4731 1 1 0 7.302057407363313 3.5555895007342286 1.254558932495345 1 2 1
995 1 1 0 8.148486760876974 3.221152760320051 0.18138146448610884 -3 2 3
735 1 1 0 8.489547077691741 2.0326522089475207 0.9132420852152043 -2 1 -1
6512 1 1 0 10.48473086461247 2.5307389722360045 1.4094942048303842 -1 0 1
795 1 1 0 9.889496576520173 2.526165930359029 0.6165775185910494 2 2 1
5277 1 1 0 10.069055436872961 3.643842437212574 0.7628529329962854 1 -1 2
555 1 1 0 9.64936571907175 3.0498275336859586 1.5434502450704306 -4 0 1
3410 1 1 0 0.3961949867194284 4.7064743220847465 1.7285829556927497 -1 1 0
2544 1 1 0 0.06902923617431538 4.44831409915072 0.2876981312431722 0 1 0
3300 1 1 0 1.3628017125530716 4.256873137856141 0.006194905677856665 1 1 0
5666 1 1 0 2.683687049346288 4.0032813498592414 0.5428863114542927 -1 -1 -2
4201 1 1 0 1.6888928889531891 4.4190558528971895 1.1486682565125583 2 2 1
6122 1 1 0 3.599456513842962 4.107577894943437 1.3324400612252592 1 -1 0
2227 1 1 0 3.251691518931608 4.9255589165563824 0.9775667028689029 1 1 0
5309 1 1 0 4.386627975072379 5.0386949612758185 1.1799912884432815 1 0 0
5408 1 1 0 4.844168941776202 5.426297497605091 0.10825599644750221 0 1 -1
5846 1 1 0 5.504309077042584 3.8712249412640873 0.19793477045084032 2 1 1
2313 1 1 0 5.496880026307378 4.753688554441274 0.9379732841646625 0 1 -1
5199 1 1 0 6.356769641584608 4.57092129135264 0.22381370930466396 0 5 0
1703 1 1 0 7.465667784471973 4.603236375095805 0.608071356807046 1 3 -2
6104 1 1 0 6.876906414673636 5.2982013639091345 1.4941428460537158 0 0 -1
4601 1 1 0 8.029086710491335 5.052499986024463 1.6807139291962236 1 1 0
4964 1 1 0 8.7014626076891 4.385004468966721 0.8577880405939798 2 1 1
3505 1 1 0 9.261759174447356 4.1395633508015175 1.7952622741064286 0 -1 2
1440 1 1 0 8.40171967958064 5.337703099169302 0.39607876562699484 1 2 -1
4009 1 1 0 9.06675031395276 5.44173175358178 1.4258243271012394 0 1 2
2950 1 1 0 10.899296116971582 4.90847396396375 0.02967858247515981 2 2 0
6119 1 1 0 10.31258386496506 4.1110104720567975 1.605694078881972 1 1 -1
2523 1 1 0 9.871038533333426 4.856046284217607 0.8245571222038612 -1 0 1
556 1 1 0 0.5438215306559079 0.5520370276160126 2.5185545434230887 3 -1 -1
5122 1 1 0 1.4412574034001964 1.2936094536204916 3.341244758820692 1 0 2
1584 1 1 0 0.4300541883720132 1.6691045319806856 3.2252331435642905 0 0 3
442 1 1 0 2.9736360103117523 1.603631452913223 2.5413255682369065 -2 1 1
689 1 1 0 1.7804558124607321 0.06121182136004404 3.3188338978428016 -1 -1 1
5932 1 1 0 4.596720461375362 0.5357978699933834 3.4100638166548563 -1 2 -1
6624 1 1 0 3.860912099118292 0.775741978857568 2.76147918377407 2 -1 -2
3266 1 1 0 5.903860323020191 1.2858761771233789 3.244377602283749 0 2 2
2966 1 1 0 4.730163999380244 1.819439744017654 3.629920408833057 0 2 3
6240 1 1 0 6.731684665945113 1.730210395593641 2.6210559641624585 3 0 -1
4899 1 1 0 7.387335553491939 0.05782747508772034 2.17611741999488 0 0 2
2268 1 1 0 6.366016291699806 0.3702675176735401 2.50050271487828 -1 0 -1
6044 1 1 0 8.74394842723868 0.39965571882514195 2.613984951733754 0 1 3
1173 1 1 0 9.157552558378459 1.7891185757615178 3.6122564108171096 0 0 1
6566 1 1 0 10.602005995253556 1.7302391928910803 2.067628281054394 -2 -1 0
5335 1 1 0 10.205172048912047 0.36818033148553714 2.575744638428827 1 1 0
5365 1 1 0 9.5546080332346 0.7402635523183005 3.3120940467464037 0 -1 2
2331 1 1 0 9.606939499522117 1.5317048368753041 2.5923019925560205 2 -3 1
797 1 1 0 10.735810913588876 1.55460021890272 3.1683355188789295 -3 2 -2
5182 1 1 0 0.98249968590243 2.048786087563464 2.2542534699154353 0 -1 0
653 1 1 0 0.9228223365887143 3.463429466162918 2.3693212268960027 1 0 1
4116 1 1 0 1.5084448149678906 2.95682890496909 3.076232275460515 1 0 0
691 1 1 0 2.6014559623739397 3.0779493848048602 3.2755134581253373 0 -1 1
4564 1 1 0 2.1855729491405254 2.3617224136783674 2.5925670538729455 2 2 1
5681 1 1 0 4.585514856487276 2.8912895967873324 2.09088134384286 2 1 -1
2648 1 1 0 3.7944557423123384 1.8832365374248925 2.9415088682361317 -1 -1 0
3447 1 1 0 5.673422746506303 2.024151345825348 1.8982570508381762 2 1 2
364 1 1 0 5.541098588335562 2.5367160788796186 2.68740695360089 2 1 2
4277 1 1 0 5.999570380995654 3.549107612596617 2.0531389063092034 1 0 1
6204 1 1 0 5.102471072925585 3.5907792586029674 3.023675614975881 1 2 -1
1949 1 1 0 7.820570319768694 2.118580914519851 2.4003472245860293 2 0 3
3451 1 1 0 7.142167864231842 3.099384382095786 2.538741776113946 0 -2 1
4550 1 1 0 7.46251119925495 2.977882093123432 3.6143340399185124 2 2 1
2403 1 1 0 8.052870838067792 3.1087298293759376 2.046406345153377 -1 -2 0
3396 1 1 0 8.910519239749577 2.415380490463472 1.8935803046574748 -3 -1 0
643 1 1 0 8.740819331117256 3.1654517304858425 3.0953806263749044 -1 0 -1
4069 1 1 0 10.318918857307269 2.7526606608010913 2.533060328434106 -2 0 -1
5634 1 1 0 10.76952704223538 2.8256137916806097 3.3830224899616166 1 0 2
2130 1 1 0 1.2396782129938757 5.201078995364514 2.1917795847621044 -1 0 0
4595 1 1 0 0.23098627186851026 3.828719567759053 3.104595891761557 1 2 -1
695 1 1 0 1.1412684174844931 3.80530947212107 3.5832201572810236 0 1 0
3369 1 1 0 0.3931642477170424 4.928303578025683 3.0570914253951478 1 0 0
766 1 1 0 2.3771157857691425 5.152082219688225 2.114495778878251 0 1 1
133 1 1 0 2.7829084841933875 5.070781656665695 3.3080921833893195 -2 -1 2
6299 1 1 0 1.6744615661652291 4.924930251398677 3.018962682081078 2 -2 2
6498 1 1 0 1.8962270672550008 4.144956281852792 2.272535732682075 1 0 2
4981 1 1 0 3.107049997385918 4.1939891270349134 2.8508005604648954 1 -1 0
5829 1 1 0 3.6205561019947137 4.975700533270861 2.2161594769441795 1 -1 2
1493 1 1 0 4.297065283629393 4.044870707959814 2.2618261345935196 -1 0 0
3223 1 1 0 4.354738678248536 5.3581528050747975 3.160197046405027 -2 1 1
3802 1 1 0 5.748553367374216 5.194308076770165 3.3719748332261337 -1 1 1
1849 1 1 0 5.682970526559567 4.5789853156166584 2.3625081866503224 0 1 2
1246 1 1 0 4.805384080383925 5.048925102638009 2.2084188608552875 -1 -1 -1
5061 1 1 0 6.196277231780914 4.036165376036639 3.18413909061103 -1 2 0
1131 1 1 0 6.768745226860089 4.7858769976303295 2.4612576933462553 0 3 -1
107 1 1 0 8.058002024444708 5.0096375244654885 2.8699124415057837 -3 0 0
1632 1 1 0 7.886281900961916 3.895572799306522 2.9102027588139445 -2 -1 0
2808 1 1 0 9.432098163516683 4.4491340932164185 2.928721622460757 0 3 0
4890 1 1 0 10.085764477209038 5.375317930739626 2.5387220640541797 1 -1 1
3779 1 1 0 10.23801453703518 3.7793167722238263 3.0476014315653885 -1 0 1
6408 1 1 0 0.28485178480667794 1.7772889253930215 4.286740894778565 0 -2 1
1341 1 1 0 0.6727096500782286 1.005077595419737 5.181143924131078 1 2 -1
4664 1 1 0 0.8495964239355781 0.9524720727137838 4.084166029278952 -1 2 0
3062 1 1 0 2.3825303899922616 0.5263185751659506 4.152420228797139 -1 0 0
2194 1 1 0 1.652262789665466 0.8484420599057345 4.909196302149709 2 0 1
6703 1 1 0 3.4240872540732163 0.5054327639623479 4.689935178072596 1 1 0
3261 1 1 0 3.232684499288096 1.1893258071245805 3.9085296866148305 0 -1 1
81 1 1 0 3.8930024693299536 1.2340185299569033 5.351799859009726 1 0 0
6422 1 1 0 4.438822728674217 0.9789722788937937 4.428632596179799 1 0 0
1279 1 1 0 5.326676292714624 0.5299028694457278 4.928586849934276 0 0 -1
4980 1 1 0 5.4984711046566135 0.21519879924149327 3.80581226071239 3 -1 0
6306 1 1 0 5.983408175740423 1.4406902827852723 4.932469620433518 0 1 0
4085 1 1 0 7.340514805850116 0.4587395672801715 3.8995128503087853 2 2 -2
3065 1 1 0 7.434694149258346 0.8903078201274637 4.788817827665273 1 -1 0
6121 1 1 0 9.102560566939603 0.2695161038450072 4.230414726112392 1 1 -2
5485 1 1 0 8.433707226847432 0.9392834514494328 4.6923786404182755 -2 1 1
5265 1 1 0 7.906030883009713 1.8022851698829598 5.45116802186409 0 1 1
1226 1 1 0 10.276935105278822 1.5028766621006229 5.202766871523287 -1 1 -1
3229 1 1 0 10.08529955282998 0.174151126028671 5.1917475088753715 3 0 3
5490 1 1 0 10.16981741891563 0.0716560120127291 3.80809326094646 0 2 -3
4004 1 1 0 0.9764216419801034 2.506885179514483 4.563697051707415 2 1 2
5101 1 1 0 0.07453894648217735 1.9783311857238033 5.433724912609134 1 1 1
5789 1 1 0 1.2737898790069835 1.9820561858525445 5.293957816227142 1 1 0
3796 1 1 0 3.131460888557371 2.2952519925006163 3.876277627752851 -1 -1 2
2904 1 1 0 1.994675412887835 2.0658885815213988 4.499810725174975 0 2 4
239 1 1 0 2.5091157717690487 2.8982750763046865 5.173524268045076 0 0 2
1134 1 1 0 1.7383829867338185 3.0988587392226288 4.12673307818457 0 -1 0
4052 1 1 0 3.275525661821669 2.1448735749993237 4.998847032430178 -3 1 0
4156 1 1 0 3.9220871519359863 3.1176297427900552 4.69821976054804 1 2 1
4838 1 1 0 4.003235352009962 1.8723159310808313 4.2597460385278705 0 1 0
1362 1 1 0 5.156883073477199 2.637695918829414 4.16480644401024 1 -2 1
456 1 1 0 5.547101964210782 2.6091308611929787 5.447454918064785 1 1 2
230 1 1 0 7.456970075816371 2.689489604741086 4.7799518409564845 -1 -1 -1
4330 1 1 0 6.499312438222279 2.3652940868433 4.1836403456840445 2 -1 2
6045 1 1 0 6.997435004270819 3.6472690239898338 4.993513601168072 1 -1 -1
1121 1 1 0 6.429056748154549 2.2323857033036534 5.391447252951733 -1 0 1
3250 1 1 0 8.183019848842873 1.8818237990182158 4.45821090015897 -1 0 -1
4034 1 1 0 8.362588976641273 3.0524516930821073 4.303748984530816 1 -1 0
5774 1 1 0 9.40178650004411 2.150577677977058 4.731779863587836 0 -1 1
4362 1 1 0 8.889123141440662 2.6915006452978503 5.48999845545006 0 0 -1
2110 1 1 0 10.10850752785696 1.9152990748876286 3.983062857052051 2 0 1
1366 1 1 0 9.52223978742538 3.4023799134278385 5.115074338755665 1 1 -2
104 1 1 0 9.489993271850416 2.9274251199406294 3.9099806707727502 0 2 1
3000 1 1 0 10.585552135943667 2.66200854271457 4.87469819148139 0 1 1
157 1 1 0 0.17204409766588974 5.260959043214528 4.416443842812555 0 0 0
731 1 1 0 0.6324694380946256 4.720028696813606 5.228558191607443 1 2 -2
5395 1 1 0 0.5925554939945855 4.036605186194086 4.459398428574733 3 0 -2
5569 1 1 0 1.247148972935741 4.837097994994555 4.400043247976144 -2 1 -2
6138 1 1 0 2.4666012488441167 4.113935216825683 3.6782017529215287 0 -1 2
309 1 1 0 1.685704114737291 4.439761355155031 5.454805244230093 0 5 0
4768 1 1 0 2.854848426255064 4.203857484735929 4.914210865968454 1 1 1
6674 1 1 0 2.452557674427414 5.128430590820662 4.318151464440899 1 1 -2
1360 1 1 0 2.972277968459262 5.128079684747037 5.303973708326428 0 1 2
5463 1 1 0 4.226078910739233 3.905319608676974 3.742646299123029 2 0 -2
5267 1 1 0 4.008814415956508 4.749990882060088 5.008134306515661 1 1 0
1545 1 1 0 5.6439480765416485 5.039570220968396 5.262709519443522 2 3 -2
5030 1 1 0 4.844396607891292 4.8748735921427375 3.893466477848117 -1 0 -2
2815 1 1 0 4.834056308126716 3.915901856581399 4.63170694502271 -2 -1 0
3353 1 1 0 5.7476119842011695 4.52965389641241 4.318477152398356 0 1 0
810 1 1 0 6.523508878205753 4.487448661004384 5.1384010732305265 0 1 2
4617 1 1 0 6.568850690027304 4.906436152190077 3.8171705970253687 2 -2 2
1219 1 1 0 7.599548207711902 4.731337656338779 4.863143032351027 -2 1 0
6477 1 1 0 7.45919936613866 4.203322046546611 3.9140653339231943 -1 0 -1
2037 1 1 0 9.114998783103138 3.8523353275035626 4.17258958026682 1 -1 2
960 1 1 0 8.506578386843268 4.271008527055736 5.016483445815006 -1 0 1
5705 1 1 0 8.551824556156571 4.743317855623508 3.790010686641886 1 3 0
3457 1 1 0 9.201567651059666 4.9908051096408155 4.831090669679336 4 -1 2
5217 1 1 0 10.020608341921209 4.491142822129476 3.9014782591186186 0 0 0
6380 1 1 0 10.4832218431605 3.98879667760839 5.462816463823999 0 2 1
4830 1 1 0 10.626139819027278 5.183961138217314 4.739691999461499 0 0 -2
5140 1 1 0 1.4539928509245812 0.9315841901108901 7.326192807312818 1 3 -2
4376 1 1 0 0.36926520011864594 0.20174404880320787 6.095273270306324 0 0 2
3073 1 1 0 1.2156988194486709 0.01711252958845245 7.012351721036623 1 2 -1
3841 1 1 0 0.3639885183207261 0.47785252402334627 7.186742814728366 1 -1 1
2508 1 1 0 1.5906650179510422 0.8422320791886748 6.013754436007057 2 -2 2
67 1 1 0 3.0816067699388325 0.4169076411496813 6.91593412166392 -2 -3 0
4763 1 1 0 2.3109849613863247 1.1310082862501467 6.6659658740170675 2 0 1
2468 1 1 0 3.734706221645665 1.0622600556177795 6.449316908324538 0 0 0
4046 1 1 0 4.612471702583286 0.7378489246030516 5.871879852989209 0 2 2
6224 1 1 0 4.507511283983218 0.27418222452838703 7.278831324216919 0 2 0
1778 1 1 0 3.945489876438879 0.07020378210180543 6.296355118289988 1 -1 0
565 1 1 0 5.447615598908575 0.8027184637778368 6.367922199945762 2 -2 1
469 1 1 0 5.5809314874266605 0.02747727436089128 7.013144304501904 -2 4 -2
204 1 1 0 4.9229448842898265 1.3769811319885787 6.98242433259472 1 -1 2
511 1 1 0 6.218634911979381 0.4620680019550633 5.529026366240773 1 -1 -2
3540 1 1 0 5.300283306130607 1.7134127457645814 5.917447113644308 0 -1 2
446 1 1 0 7.225811735877773 0.7515523062590569 6.932056839071997 0 0 0
1681 1 1 0 6.929395333683637 1.1674296723897883 5.784029332075023 -3 -1 -1
918 1 1 0 7.4266342878160385 0.08174126883106926 5.68332295936819 1 0 0
1232 1 1 0 6.376872460277357 1.4853455605244632 6.66979084255498 -2 0 -1
131 1 1 0 8.031575138564758 1.035764498446225 6.209083228433838 -1 0 1
737 1 1 0 8.92979424597157 0.2641801359460577 5.668548030416159 0 1 -1
974 1 1 0 8.271466632992402 1.4702097364574442 7.125574762345821 -3 -1 1
1150 1 1 0 9.05988202976365 1.400977364606875 5.609122505405606 2 2 -1
4076 1 1 0 9.502114881975782 0.9302598858690914 6.372927350410152 0 1 2
3021 1 1 0 0.8489729238228588 2.8491290232593633 5.599530494329803 1 -1 2
1998 1 1 0 0.7380773514650193 2.012476226573421 6.270598304638827 1 -1 0
227 1 1 0 1.222995227968565 2.484257053128518 7.21440249295088 2 0 -2
2355 1 1 0 2.8908810250622894 2.0290460545566567 6.886872170572034 0 1 -1
5690 1 1 0 2.704715292888217 3.3925102247503287 6.281181466092024 -1 1 1
4082 1 1 0 1.78215603887845 1.9498954711748255 6.30149538586727 -2 0 4
2778 1 1 0 2.353182644975866 2.7913883443824323 7.246856936920579 0 -2 -1
6227 1 1 0 4.40098723387315 2.174705639569109 6.703404491602356 0 2 2
4635 1 1 0 4.358820280544497 2.3882456912799666 5.602670536997125 1 -1 -2
4067 1 1 0 3.3347627627803798 2.3985431703007185 6.054717425592342 1 1 1
690 1 1 0 3.728682783842324 3.3110838721891698 5.603281287047024 1 1 0
753 1 1 0 3.6484468060391544 3.151733708927368 6.738448655172962 -2 -2 2
4949 1 1 0 5.678343834053896 3.3108652138942127 6.729951501691371 0 -2 3
2723 1 1 0 5.5695586754006055 2.28001137964475 7.054829547926419 0 -1 0
2146 1 1 0 6.104885786453724 3.636508268427556 5.596993068047444 1 2 -1
5793 1 1 0 4.823908894341031 3.0290905507637427 6.273941512133259 2 1 -2
2624 1 1 0 6.341354355298628 2.5260372587887123 6.454685888481612 0 -1 -1
5548 1 1 0 7.379226454623389 1.8515006707937842 6.64493081914936 -2 1 -1
5897 1 1 0 7.116481881605784 3.443745442603776 7.053603229593492 1 0 1
584 1 1 0 8.137241117474066 3.6114124073753113 6.929490976436785 -1 -1 0
4990 1 1 0 8.063204108045682 2.726200301532156 6.060995670436717 1 -1 3
911 1 1 0 9.070169020145116 2.1734752946546374 6.433825727951197 0 0 -1
564 1 1 0 10.268035195604936 3.5413097377093905 6.404769132643072 -1 1 0
7 1 1 0 9.921364507628544 2.4525284000291006 5.853810758449158 -1 3 -1
2720 1 1 0 9.752315485237016 2.8039171709223996 7.113281360869037 -1 0 0
215 1 1 0 10.969384644379089 2.681805704125459 6.673506724794823 -3 2 1
6064 1 1 0 10.992237231046458 1.9173769284508648 5.767192997492037 -1 1 -1
1571 1 1 0 0.8824889592044152 4.550061664835016 6.200881141976428 -1 1 0
2940 1 1 0 1.3323398771777297 4.992110945930298 6.965476934894544 -2 -3 1
5314 1 1 0 0.9048127857481515 3.708061325115321 7.164258290157069 3 2 0
2884 1 1 0 0.30612513801929564 3.7069093144546255 5.599299354001585 1 -2 1
1321 1 1 0 2.3814218969500014 4.500396289285113 6.301030704991964 -1 -1 0
2951 1 1 0 2.886972315988296 3.992526513778015 7.281211691088133 1 -1 -2
3520 1 1 0 1.7663772356849006 5.352733439328659 6.115388167034961 0 0 0
6598 1 1 0 3.8097788884799435 5.271240526690306 6.283016939523515 1 -2 0
3782 1 1 0 3.7428547755584267 4.402607684516874 6.9060955287383 2 1 -1
5967 1 1 0 4.688453795172158 3.9313199097471885 6.768403287549974 1 1 0
5930 1 1 0 4.669591398281589 4.720445469539964 5.942453948401813 1 -1 -2
5009 1 1 0 3.2539052981432772 4.263254325739594 5.996799590038539 2 3 1
3924 1 1 0 5.045204165461382 3.721893166734688 5.536900631791969 0 -3 1
6161 1 1 0 5.669710998016284 4.294544067819513 6.418528074965924 1 2 -2
4897 1 1 0 5.466526901867358 5.312532607956217 6.615024751588582 0 2 2
5941 1 1 0 6.871506294227809 4.103638669055929 6.1432378447036315 1 2 2
4331 1 1 0 6.59673295057676 5.198143154048496 6.709123188079251 0 -1 3
1200 1 1 0 7.626939167362201 4.642737588236877 7.253420766127045 1 -1 3
5082 1 1 0 7.8564575767627876 3.730128190905904 5.535991714512567 0 1 -1
1235 1 1 0 9.142709303086749 3.8382118910325347 6.478504366806845 0 2 -2
2652 1 1 0 10.496631405228309 4.613312472533474 6.890785788108646 1 -1 2
1631 1 1 0 9.621014366731426 5.4205365285799685 6.512352303251326 -1 2 0
1459 1 1 0 9.482218848926987 4.4786079286320675 5.596980971732657 -2 2 2
6720 1 1 0 1.3746948400194487 0.5058503032315577 8.35571652903054 0 1 0
1471 1 1 0 0.9768160443794407 1.66362842122516 7.896400973922732 -1 1 1
6593 1 1 0 0.18575906132922096 0.6746267445785766 8.213024938165415 1 2 -1
5637 1 1 0 1.792708361427214 1.2717104441229667 9.067799229799025 1 -1 0
2113 1 1 0 2.3096311847416766 1.053157490672792 7.951925681756744 0 0 -1
5577 1 1 0 3.022262406903285 1.6097605097058734 8.601842564417925 0 -2 0
5201 1 1 0 2.5987342331029866 0.5208981118400587 8.87102994314172 2 2 0
1384 1 1 0 3.834019786559216 0.4095794432062578 8.612099903728755 2 2 -2
3604 1 1 0 3.755423618868396 1.1206330798775008 7.8507955864335655 -2 1 2
5497 1 1 0 4.16659779208483 1.7406418760001896 8.790650841485595 1 2 0
2469 1 1 0 4.728691623921791 0.11073600986877032 8.219994108118655 -2 -1 0
1852 1 1 0 5.226271581878353 0.8673108280406314 7.825947145802366 -1 2 -1
3006 1 1 0 5.105880454080412 0.8923184958146698 8.848489900848431 -2 1 -1
2797 1 1 0 6.010035732456386 0.3381428153893447 8.705118581871833 0 1 -1
1646 1 1 0 6.986135481138048 1.786745479417343 7.565890688407515 1 0 -2
4623 1 1 0 6.343524776216907 1.3384751711867475 8.454869391834857 -2 0 0
2025 1 1 0 7.065750995723861 0.8704830553770949 9.125923612877553 -1 1 0
5139 1 1 0 6.300123996129085 0.6591339552083949 7.547092831878533 1 0 0
6648 1 1 0 7.8973481999955615 1.4226322418687145 8.117154059402969 0 0 0
5362 1 1 0 8.168526553043904 0.752631858093443 8.700197654458615 2 -1 1
3454 1 1 0 8.980579163759991 1.6863178220280697 8.858629811550355 0 1 1
5039 1 1 0 9.052136313115847 1.0972834656287915 7.802923285784039 0 2 -3
704 1 1 0 10.14127187607429 0.4548855022855873 8.899258899663543 -1 1 -2
5843 1 1 0 9.624210945053527 0.07530033285188001 7.707107365334146 1 0 -1
6386 1 1 0 0.6008424539562233 2.9149148341853857 8.15150878914795 0 0 -3
435 1 1 0 0.6663170894232339 1.9392103945446537 8.798298951614418 -1 1 4
2371 1 1 0 1.6399146209501203 3.4122203872743846 8.079620183974168 1 1 0
4203 1 1 0 2.0210751901434034 2.1383755106229114 8.195078729043221 1 -1 0
2274 1 1 0 2.7568219117463313 3.13275143395873 8.195489021944375 0 1 1
4735 1 1 0 4.509155346542878 2.9544985848311867 7.489778517221548 1 -1 -2
1468 1 1 0 3.5555859015104048 2.23578936299995 7.901098217397463 1 -1 2
5876 1 1 0 3.62420336138926 2.8633707637014476 8.819114517815693 3 1 0
1733 1 1 0 4.981994666917508 1.938009617117626 7.873023421054296 -1 0 1
4449 1 1 0 4.7757444794974075 2.7054798555555317 9.127864841853091 4 0 0
2556 1 1 0 5.430349717496107 2.9334349620489624 8.188983078909635 0 2 1
4529 1 1 0 5.652361346580541 3.243804215765765 9.127966794540033 0 -3 1
6251 1 1 0 5.619760131732201 1.9353326038775343 8.9672066208515 1 -1 1
1528 1 1 0 7.8326373372169495 2.7363396358915963 7.498979739098223 0 -3 1
164 1 1 0 7.2606165764049475 2.5473326736290303 8.494764164685686 -2 0 -1
4919 1 1 0 6.393616693648965 2.5191329682741475 8.014205882677903 1 1 -2
4428 1 1 0 7.8314828841715585 3.6662021546303833 7.965849920032363 0 2 -2
5281 1 1 0 6.879255675754028 3.4276808464898942 8.182765970621555 -1 0 -2
2609 1 1 0 8.79223362014239 3.5477415380372417 7.701696909824711 0 -1 0
998 1 1 0 8.298168305125847 2.994942409645182 8.551838765949292 -4 0 0
4196 1 1 0 9.054756438427205 2.227208911042058 7.6231804064193405 -1 0 3
5977 1 1 0 9.899373748255865 2.1343314786409056 8.491034887958172 -1 1 -3
1918 1 1 0 10.750693000529978 3.069616275703403 7.606894443983946 1 0 0
6351 1 1 0 0.9149141534210831 5.4458823478360925 8.780826142068717 2 -1 2
6697 1 1 0 0.20837213488970305 4.532508843647197 7.7697122948810735 -2 2 -1
6103 1 1 0 1.1870896472401231 4.404066985279235 8.142103264567545 -2 3 -1
3684 1 1 0 0.044218499933357865 3.812427264174217 8.600810995975747 0 -1 -2
1488 1 1 0 2.9193392650347536 5.052511624838218 8.89649395734983 -1 -1 1
2811 1 1 0 1.7823297374137035 3.741872053434183 9.043113453045525 0 2 0
3757 1 1 0 2.215117156609303 5.028796881706081 7.500832807362814 -1 0 2
1767 1 1 0 1.7481533376576606 4.96823450688628 9.130333361062368 1 1 1
1833 1 1 0 2.6855147991777795 4.3134347545637 8.229973969728292 0 1 -2
4715 1 1 0 3.5817342314353535 5.388033181943916 7.577573195946096 0 0 0
2501 1 1 0 3.744919669451869 3.863854439392352 8.012311916877621 1 1 -1
1730 1 1 0 4.592299918740595 4.185861419508256 8.36377683855949 1 0 1
5411 1 1 0 3.827268733962794 4.845224957366315 8.574893907749155 1 -2 -2
1562 1 1 0 4.439041924967645 4.821755292362451 7.4792579987282 0 -1 2
6037 1 1 0 3.400525582105257 4.149245120121815 9.146781017128301 2 -3 0
5889 1 1 0 5.031325783615136 5.301157580841644 8.705301175617176 0 1 0
727 1 1 0 5.398264124813608 5.201458006607075 7.659746195803215 1 0 -1
2880 1 1 0 5.446147389692571 4.192831450496225 7.503268589060921 -1 -1 -1
2943 1 1 0 6.112245899860707 4.08203046059102 8.557940039166473 -1 2 -2
3352 1 1 0 6.716377210490485 4.314185757351411 7.625524288164856 -1 1 -2
4494 1 1 0 6.630249588175856 5.380868275612676 7.896336631889036 0 1 1
2463 1 1 0 7.644934418107229 4.823087672141697 8.41644879973996 0 1 1
1005 1 1 0 7.588363388312291 3.749259231023708 9.009678600201758 1 0 2
1339 1 1 0 8.369101583915107 5.307089166034388 7.674950681437969 -1 2 3
466 1 1 0 9.41384569573047 3.854123606216702 8.823192184918591 -1 2 1
535 1 1 0 8.710478931814844 4.421470605152647 8.242162368364628 -2 0 0
1853 1 1 0 9.954811799783398 3.7735915950102434 7.946576636751141 -1 1 -2
3368 1 1 0 9.460546000829947 4.974645322253447 7.586674288940532 -1 0 -1
4656 1 1 0 9.728597457691311 5.411122859349744 8.894398603551581 0 2 0
2245 1 1 0 10.760694796811697 4.689578987890636 7.991857380317665 4 -1 -2
3564 1 1 0 10.69050456290945 4.238655279209827 9.089073006039953 2 2 1
5654 1 1 0 1.023784185824114 0.8753027226586686 10.806214292859671 3 0 1
3918 1 1 0 0.6092228206638224 0.8149726253011763 9.314372160766933 0 0 -3
2034 1 1 0 0.8049158024140508 1.6999793814854807 10.107099896675193 0 4 -1
2789 1 1 0 1.5701221638089236 0.7600714733403618 9.97688119171908 1 1 0
1081 1 1 0 1.7541811443383049 1.7306602528475952 10.449523682121507 2 0 -1
2060 1 1 0 3.022773494669718 1.5941160131667 10.549292819959959 3 0 -1
5160 1 1 0 2.6996807088235943 0.7360694126329547 10.166483216393347 0 3 2
2181 1 1 0 4.714228422640909 0.8326574786898303 9.873039703347361 -1 0 -1
6607 1 1 0 3.6469188102900154 0.976154523452488 9.745858659549965 1 2 1
1889 1 1 0 4.066862722150859 1.110413153189015 10.807670275915497 0 -1 3
1875 1 1 0 5.518525257619157 0.5971327902111854 10.717016300078521 0 1 1
5162 1 1 0 6.010881669576951 1.078315040167024 9.514317256628887 0 0 -1
2946 1 1 0 6.322553275222221 1.416284511844361 10.495920775585976 1 -1 1
368 1 1 0 7.421946453628151 1.343434858588721 10.80888016528367 -2 0 0
1201 1 1 0 7.8490131845066795 0.15716161862990904 9.672586940708468 2 0 -1
4029 1 1 0 6.934597284955217 0.5879105383712141 10.349357178910504 -3 2 -4
1028 1 1 0 7.919906473569548 1.3819135772177276 9.748850474478303 0 0 -1
6502 1 1 0 8.843790388471612 0.16237560270398407 9.31483637382556 0 1 2
2833 1 1 0 8.738277940830077 0.23124293058635598 10.531897616275964 -3 2 0
4653 1 1 0 8.950908940597014 1.1481900969119405 9.966363858676198 0 1 0
492 1 1 0 8.368287739540389 1.7364075203999068 10.77783294413786 -2 -5 0
1776 1 1 0 10.967616534990556 0.1326507236386563 9.943842044513616 -1 3 -2
1677 1 1 0 9.770821359260365 0.6475862306791709 10.381044530726525 -1 0 0
1961 1 1 0 10.493875374221922 1.550341995285411 10.779216027154732 -2 -3 -4
55 1 1 0 1.544077624128939 2.459303007521198 9.280131326158529 -1 2 2
3994 1 1 0 0.6247417308547559 2.8639293042834106 9.682477178239456 3 1 3
1973 1 1 0 1.4839349430436428 3.1642303947321135 10.100229331609592 0 -3 -2
4782 1 1 0 2.5608408128448734 1.9209639661787181 9.740366075038454 0 3 0
1794 1 1 0 2.502790286291257 2.942735752737824 9.342412813785154 0 -1 0
5165 1 1 0 3.86698454712793 2.1306818889969064 10.762256051171352 -1 1 -2
1640 1 1 0 3.473973516345351 2.1705383784644336 9.744551223451346 1 3 -1
843 1 1 0 3.152295724464009 2.8538366991916835 10.343706430785678 -2 -1 1
4002 1 1 0 4.968981556551497 1.9904238904879032 10.287256789362942 1 0 0
1699 1 1 0 5.252234961492351 3.131570223215613 10.259340382780863 0 1 3
845 1 1 0 6.160553342505795 2.449675241049834 9.790653927365062 0 -1 0
3046 1 1 0 7.328512896521177 2.314085323435127 10.407037469193371 -1 1 -1
1485 1 1 0 6.924840969224591 1.8727517581210142 9.430790293347762 2 -2 -2
3188 1 1 0 6.692891722652661 3.349469039606085 9.215637545937582 0 0 0
5049 1 1 0 7.645999267309373 3.262112749262818 9.958256054204822 1 2 0
3688 1 1 0 6.5279357257576995 2.768149280072975 10.96608104906675 1 1 -3
4823 1 1 0 9.421044472509974 2.6136193810188315 9.238175422609107 0 1 1
1587 1 1 0 7.932170065027784 2.4125771313256745 9.373963883280853 -1 1 0
3570 1 1 0 8.81298986589149 3.6192161276357093 9.874189337514661 -1 -1 0
664 1 1 0 9.584476973207067 1.9585097843122066 10.624445384694376 0 -1 -1
2771 1 1 0 10.05840383430814 3.42593701674346 9.629572320095258 1 2 -1
5157 1 1 0 10.447170738995373 2.7074785260941296 10.33098036298122 0 -1 1
4439 1 1 0 10.347984627998633 2.128758337304494 9.531319583961954 -2 1 0
5612 1 1 0 0.8297924146468998 4.375322522221019 9.207543917985781 0 -4 2
1556 1 1 0 1.2739764318803843 4.184908693815873 10.170479968906653 0 1 -2
6223 1 1 0 0.5297888239807396 5.041666137318116 10.04541531529318 0 1 2
4534 1 1 0 2.0201227811848974 4.505152335185956 10.92462039319299 0 -2 -2
6424 1 1 0 3.024353937828114 4.960445909113441 10.6057807337706 0 -1 -1
557 1 1 0 2.7859142246732183 3.828843683466318 10.050270763689047 -1 1 0
2381 1 1 0 4.5867526315822404 4.26350436363398 9.584519636314216 -2 0 0